 vasp.5.4.4.18Apr17-6-g9f103f2a35 (build Jul 24 2019 14:41:59) complex          
  
 executed on IFC18.0.1.163_CrayMP date 2019.09.25  19:53:40
 running on   32 total cores
 distrk:  each k-point on   32 cores,    1 groups
 distr:  one band on NCORES_PER_BAND=   1 cores,   32 groups


--------------------------------------------------------------------------------------------------------


 INCAR:
 POTCAR:   PAW_PBE Ti_pv 07Sep2000                
 POTCAR:   PAW_PBE O 08Apr2002                    

 ----------------------------------------------------------------------------- 
|                                                                             |
|           W    W    AA    RRRRR   N    N  II  N    N   GGGG   !!!           |
|           W    W   A  A   R    R  NN   N  II  NN   N  G    G  !!!           |
|           W    W  A    A  R    R  N N  N  II  N N  N  G       !!!           |
|           W WW W  AAAAAA  RRRRR   N  N N  II  N  N N  G  GGG   !            |
|           WW  WW  A    A  R   R   N   NN  II  N   NN  G    G                |
|           W    W  A    A  R    R  N    N  II  N    N   GGGG   !!!           |
|                                                                             |
|      For optimal performance we recommend to set                            |
|        NCORE= 4 - approx SQRT( number of cores)                             |
|      NCORE specifies how many cores store one orbital (NPAR=cpu/NCORE).     |
|      This setting can  greatly improve the performance of VASP for DFT.     |
|      The default,   NCORE=1            might be grossly inefficient         |
|      on modern multi-core architectures or massively parallel machines.     |
|      Do your own testing !!!!                                               |
|      Unfortunately you need to use the default for GW and RPA calculations. |
|      (for HF NCORE is supported but not extensively tested yet)             |
|                                                                             |
 ----------------------------------------------------------------------------- 

 POTCAR:   PAW_PBE Ti_pv 07Sep2000                
   VRHFIN =Ti: d3 s1                                                            
   LEXCH  = PE                                                                  
   EATOM  =  1042.3781 eV,   76.6126 Ry                                         
                                                                                
   TITEL  = PAW_PBE Ti_pv 07Sep2000                                             
   LULTRA =        F    use ultrasoft PP ?                                      
   IUNSCR =        1    unscreen: 0-lin 1-nonlin 2-no                           
   RPACOR =    2.200    partial core radius                                     
   POMASS =   47.880; ZVAL   =   10.000    mass and valenz                      
   RCORE  =    2.500    outmost cutoff radius                                   
   RWIGS  =    2.500; RWIGS  =    1.323    wigner-seitz radius (au A)           
   ENMAX  =  222.338; ENMIN  =  166.753 eV                                      
   RCLOC  =    1.701    cutoff for local pot                                    
   LCOR   =        T    correct aug charges                                     
   LPAW   =        T    paw PP                                                  
   EAUG   =  482.848                                                            
   DEXC   =    -.008                                                            
   RMAX   =    3.092    core radius for proj-oper                               
   RAUG   =    1.300    factor for augmentation sphere                          
   RDEP   =    2.538    radius for radial grids                                 
   QCUT   =   -4.042; QGAM   =    8.085    optimization parameters              
                                                                                
   Description                                                                  
     l     E      TYP  RCUT    TYP  RCUT                                        
     1   .000     23  2.300                                                     
     1  -.100     23  2.300                                                     
     2   .000     23  2.500                                                     
     2   .000     23  2.500                                                     
     0   .000     23  2.500                                                     
     0  1.500     23  2.500                                                     
     3   .000      7   .000                                                     
  local pseudopotential read in
  partial core-charges read in
  atomic valenz-charges read in
  non local Contribution for L=           1  read in
    real space projection operators read in
  non local Contribution for L=           1  read in
    real space projection operators read in
  non local Contribution for L=           2  read in
    real space projection operators read in
  non local Contribution for L=           2  read in
    real space projection operators read in
  non local Contribution for L=           0  read in
    real space projection operators read in
  non local Contribution for L=           0  read in
    real space projection operators read in
    PAW grid and wavefunctions read in
 
   number of l-projection  operators is LMAX  =           6
   number of lm-projection operators is LMMAX =          18
 
 POTCAR:   PAW_PBE O 08Apr2002                    
   VRHFIN =O: s2p4                                                              
   LEXCH  = PE                                                                  
   EATOM  =   432.3788 eV,   31.7789 Ry                                         
                                                                                
   TITEL  = PAW_PBE O 08Apr2002                                                 
   LULTRA =        F    use ultrasoft PP ?                                      
   IUNSCR =        0    unscreen: 0-lin 1-nonlin 2-no                           
   RPACOR =     .000    partial core radius                                     
   POMASS =   16.000; ZVAL   =    6.000    mass and valenz                      
   RCORE  =    1.520    outmost cutoff radius                                   
   RWIGS  =    1.550; RWIGS  =     .820    wigner-seitz radius (au A)           
   ENMAX  =  400.000; ENMIN  =  300.000 eV                                      
   ICORE  =        2    local potential                                         
   LCOR   =        T    correct aug charges                                     
   LPAW   =        T    paw PP                                                  
   EAUG   =  605.392                                                            
   DEXC   =     .000                                                            
   RMAX   =    2.264    core radius for proj-oper                               
   RAUG   =    1.300    factor for augmentation sphere                          
   RDEP   =    1.550    radius for radial grids                                 
   QCUT   =   -5.520; QGAM   =   11.041    optimization parameters              
                                                                                
   Description                                                                  
     l     E      TYP  RCUT    TYP  RCUT                                        
     0   .000     23  1.200                                                     
     0  -.700     23  1.200                                                     
     1   .000     23  1.520                                                     
     1   .600     23  1.520                                                     
     2   .000      7  1.500                                                     
  local pseudopotential read in
  atomic valenz-charges read in
  non local Contribution for L=           0  read in
    real space projection operators read in
  non local Contribution for L=           0  read in
    real space projection operators read in
  non local Contribution for L=           1  read in
    real space projection operators read in
  non local Contribution for L=           1  read in
    real space projection operators read in
    PAW grid and wavefunctions read in
 
   number of l-projection  operators is LMAX  =           4
   number of lm-projection operators is LMMAX =           8
 

 ----------------------------------------------------------------------------- 
|                                                                             |
|  ADVICE TO THIS USER RUNNING 'VASP/VAMP'   (HEAR YOUR MASTER'S VOICE ...):  |
|                                                                             |
|      You have a (more or less) 'small supercell' and for smaller cells      |
|      it is recommended  to use the reciprocal-space projection scheme!      |
|      The real space optimization is not  efficient for small cells and it   |
|      is also less accurate ...                                              |
|      Therefore set LREAL=.FALSE. in the  INCAR file                         |
|                                                                             |
 ----------------------------------------------------------------------------- 

 Optimization of the real space projectors (new method)

 maximal supplied QI-value         = 15.12
 optimisation between [QCUT,QGAM] = [ 11.64, 23.28] = [ 37.95,151.78] Ry 
 Optimized for a Real-space Cutoff    1.49 Angstroem

   l    n(q)    QCUT    max X(q) W(low)/X(q) W(high)/X(q)  e(spline) 
   1     10    11.641     4.841    0.35E-05    0.64E-05    0.25E-07
   1     10    11.641     5.701    0.66E-04    0.10E-03    0.13E-06
   2      9    11.641     4.569    0.28E-04    0.25E-05    0.73E-07
   2      9    11.641    32.276    0.66E-04    0.13E-03    0.50E-06
   0     10    11.641    30.046    0.11E-04    0.90E-05    0.25E-07
   0     10    11.641    45.433    0.75E-04    0.66E-04    0.24E-06
 Optimization of the real space projectors (new method)

 maximal supplied QI-value         = 24.76
 optimisation between [QCUT,QGAM] = [ 11.64, 23.27] = [ 37.91,151.63] Ry 
 Optimized for a Real-space Cutoff    1.08 Angstroem

   l    n(q)    QCUT    max X(q) W(low)/X(q) W(high)/X(q)  e(spline) 
   0      7    11.635     4.192    0.54E-04    0.80E-04    0.26E-07
   0      7    11.635     8.473    0.70E-04    0.40E-03    0.21E-06
   1      7    11.635     2.474    0.39E-04    0.14E-03    0.23E-07
   1      7    11.635     3.912    0.25E-03    0.37E-03    0.22E-06
 PAW_PBE Ti_pv 07Sep2000                :
 energy of atom  1       EATOM=-1042.3781
 kinetic energy error for atom=    0.0019 (will be added to EATOM!!)
 PAW_PBE O 08Apr2002                    :
 energy of atom  2       EATOM= -432.3788
 kinetic energy error for atom=    0.0208 (will be added to EATOM!!)
 
 
 POSCAR: Ti1 O2                                  
  positions in direct lattice
  No initial velocities read in
 exchange correlation table for  LEXCH =        8
   RHO(1)=    0.500       N(1)  =     2000
   RHO(2)=  100.500       N(2)  =     4000
 


--------------------------------------------------------------------------------------------------------


 ion  position               nearest neighbor table
   1  0.000  0.000  0.000-   3 1.98   3 1.98   2 1.98   2 1.98   3 1.98   2 1.98
   2  0.267  0.267  0.267-   1 1.98   1 1.98   1 1.98
   3  0.733  0.733  0.733-   1 1.98   1 1.98   1 1.98
 
  LATTYP: Found a trigonal (rhomboedric) cell.
 ALAT       =     5.1685549804
 COS(alpha) =     0.8318742373
  
  Lattice vectors:
  
 A1 = (   4.9465450000,  -1.4985500000,   0.0000000000)
 A2 = (   4.9465450000,   1.4985500000,   0.0000000000)
 A3 = (   4.4925610000,   0.0000000000,   2.5555540000)


Analysis of symmetry for initial positions (statically):
=====================================================================
 Subroutine PRICEL returns:
 Original cell was already a primitive cell.
 

 Routine SETGRP: Setting up the symmetry group for a 
 trigonal (rhombohedral) supercell.


 Subroutine GETGRP returns: Found 12 space group operations
 (whereof 12 operations were pure point group operations)
 out of a pool of 12 trial point group operations.


The static configuration has the point symmetry D_3d.


Analysis of symmetry for dynamics (positions and initial velocities):
=====================================================================
 Subroutine PRICEL returns:
 Original cell was already a primitive cell.
 

 Routine SETGRP: Setting up the symmetry group for a 
 trigonal (rhombohedral) supercell.


 Subroutine GETGRP returns: Found 12 space group operations
 (whereof 12 operations were pure point group operations)
 out of a pool of 12 trial point group operations.


The dynamic configuration has the point symmetry D_3d.


Analysis of structural, dynamic, and magnetic symmetry:
=====================================================================
 Subroutine PRICEL returns:
 Original cell was already a primitive cell.
 

 Routine SETGRP: Setting up the symmetry group for a 
 trigonal (rhombohedral) supercell.


 Subroutine GETGRP returns: Found 12 space group operations
 (whereof 12 operations were pure point group operations)
 out of a pool of 12 trial point group operations.


The magnetic configuration has the point symmetry D_3d.


 Subroutine INISYM returns: Found 12 space group operations
 (whereof 12 operations are pure point group operations),
 and found     1 'primitive' translations

 
 
 KPOINTS: pymatgen v1.1 with grid density = 1964 /

Automatic generation of k-mesh.
Space group operators:
 irot       det(A)        alpha          n_x          n_y          n_z        tau_x        tau_y        tau_z
    1     1.000000     0.000000     1.000000     0.000000     0.000000     0.000000     0.000000     0.000000
    2    -1.000000     0.000000     1.000000     0.000000     0.000000     0.000000     0.000000     0.000000
    3     1.000000   180.000000    -0.151474    -0.500000     0.852675     0.000000     0.000000     0.000000
    4    -1.000000   180.000000    -0.151474    -0.500000     0.852675     0.000000     0.000000     0.000000
    5     1.000000   120.000000    -0.984585     0.000000    -0.174908     0.000000     0.000000     0.000000
    6    -1.000000   120.000000    -0.984585     0.000000    -0.174908     0.000000     0.000000     0.000000
    7     1.000000   180.000000     0.000000     1.000000    -0.000000     0.000000     0.000000     0.000000
    8    -1.000000   180.000000     0.000000     1.000000    -0.000000     0.000000     0.000000     0.000000
    9     1.000000   120.000000     0.984585     0.000000     0.174908     0.000000     0.000000     0.000000
   10    -1.000000   120.000000     0.984585     0.000000     0.174908     0.000000     0.000000     0.000000
   11     1.000000   180.000000    -0.151474     0.500000     0.852675     0.000000     0.000000     0.000000
   12    -1.000000   180.000000    -0.151474     0.500000     0.852675     0.000000     0.000000     0.000000
 
 Subroutine IBZKPT returns following result:
 ===========================================
 
 Found     65 irreducible k-points:
 
 Following reciprocal coordinates:
            Coordinates               Weight
  0.000000  0.000000  0.000000      1.000000
  0.125000  0.000000  0.000000      6.000000
  0.250000  0.000000  0.000000      6.000000
  0.375000 -0.000000 -0.000000      6.000000
  0.500000  0.000000  0.000000      3.000000
  0.125000  0.125000  0.000000      6.000000
  0.250000  0.125000  0.000000     12.000000
  0.375000  0.125000  0.000000     12.000000
  0.500000  0.125000  0.000000     12.000000
 -0.375000  0.125000 -0.000000     12.000000
 -0.250000  0.125000  0.000000     12.000000
 -0.125000  0.125000  0.000000      6.000000
  0.250000  0.250000  0.000000      6.000000
  0.375000  0.250000  0.000000     12.000000
  0.500000  0.250000  0.000000     12.000000
 -0.375000  0.250000  0.000000     12.000000
 -0.250000  0.250000  0.000000      6.000000
  0.375000  0.375000  0.000000      6.000000
  0.500000  0.375000  0.000000     12.000000
 -0.375000  0.375000  0.000000      6.000000
  0.500000  0.500000  0.000000      3.000000
  0.125000  0.125000  0.125000      2.000000
  0.250000  0.125000  0.125000      6.000000
  0.375000  0.125000  0.125000      6.000000
  0.500000  0.125000  0.125000      6.000000
 -0.375000  0.125000  0.125000      6.000000
 -0.250000  0.125000  0.125000      6.000000
 -0.125000  0.125000  0.125000      6.000000
  0.250000  0.250000  0.125000      6.000000
  0.375000  0.250000  0.125000     12.000000
  0.500000  0.250000  0.125000     12.000000
 -0.375000  0.250000  0.125000     12.000000
 -0.250000  0.250000  0.125000     12.000000
 -0.125000  0.250000  0.125000     12.000000
  0.375000  0.375000  0.125000      6.000000
  0.500000  0.375000  0.125000     12.000000
 -0.375000  0.375000  0.125000     12.000000
 -0.250000  0.375000  0.125000     12.000000
 -0.125000  0.375000  0.125000     12.000000
  0.500000  0.500000  0.125000      6.000000
 -0.375000  0.500000  0.125000     12.000000
 -0.250000  0.500000  0.125000     12.000000
 -0.125000  0.500000  0.125000      6.000000
 -0.375000 -0.375000  0.125000      6.000000
 -0.250000 -0.375000  0.125000     12.000000
 -0.250000 -0.250000  0.125000      6.000000
  0.250000  0.250000  0.250000      2.000000
  0.375000  0.250000  0.250000      6.000000
  0.500000  0.250000  0.250000      6.000000
 -0.375000  0.250000  0.250000      6.000000
 -0.250000  0.250000  0.250000      6.000000
  0.375000  0.375000  0.250000      6.000000
  0.500000  0.375000  0.250000     12.000000
 -0.375000  0.375000  0.250000     12.000000
 -0.250000  0.375000  0.250000     12.000000
  0.500000  0.500000  0.250000      6.000000
 -0.375000  0.500000  0.250000     12.000000
 -0.250000  0.500000  0.250000      6.000000
 -0.375000 -0.375000  0.250000      6.000000
  0.375000  0.375000  0.375000      2.000000
  0.500000  0.375000  0.375000      6.000000
 -0.375000  0.375000  0.375000      6.000000
  0.500000  0.500000  0.375000      6.000000
 -0.375000  0.500000  0.375000      6.000000
  0.500000  0.500000  0.500000      1.000000
 
 Following cartesian coordinates:
            Coordinates               Weight
  0.000000  0.000000  0.000000      1.000000
  0.012635 -0.041707 -0.022212      6.000000
  0.025270 -0.083414 -0.044424      6.000000
  0.037905 -0.125121 -0.066636      6.000000
  0.050540 -0.166828 -0.088848      3.000000
  0.025270  0.000000 -0.044424      6.000000
  0.037905 -0.041707 -0.066636     12.000000
  0.050540 -0.083414 -0.088848     12.000000
  0.063175 -0.125121 -0.111060     12.000000
 -0.025270  0.166828  0.044424     12.000000
 -0.012635  0.125121  0.022212     12.000000
  0.000000  0.083414  0.000000      6.000000
  0.050540  0.000000 -0.088848      6.000000
  0.063175 -0.041707 -0.111060     12.000000
  0.075810 -0.083414 -0.133272     12.000000
 -0.012635  0.208535  0.022212     12.000000
  0.000000  0.166828  0.000000      6.000000
  0.075810  0.000000 -0.133272      6.000000
  0.088446 -0.041707 -0.155484     12.000000
  0.000000  0.250242  0.000000      6.000000
  0.101081  0.000000 -0.177696      3.000000
  0.025270  0.000000  0.004489      2.000000
  0.037905 -0.041707 -0.017723      6.000000
  0.050540 -0.083414 -0.039935      6.000000
  0.063175 -0.125121 -0.062147      6.000000
 -0.025270  0.166828  0.093337      6.000000
 -0.012635  0.125121  0.071125      6.000000
  0.000000  0.083414  0.048913      6.000000
  0.050540  0.000000 -0.039935      6.000000
  0.063175 -0.041707 -0.062147     12.000000
  0.075810 -0.083414 -0.084359     12.000000
 -0.012635  0.208535  0.071125     12.000000
  0.000000  0.166828  0.048913     12.000000
  0.012635  0.125121  0.026701     12.000000
  0.075810  0.000000 -0.084359      6.000000
  0.088446 -0.041707 -0.106571     12.000000
  0.000000  0.250242  0.048913     12.000000
  0.012635  0.208535  0.026701     12.000000
  0.025270  0.166828  0.004489     12.000000
  0.101081  0.000000 -0.128783      6.000000
  0.012635  0.291949  0.026701     12.000000
  0.025270  0.250242  0.004489     12.000000
  0.037905  0.208535 -0.017723      6.000000
 -0.075810  0.000000  0.182185      6.000000
 -0.063175 -0.041707  0.159973     12.000000
 -0.050540  0.000000  0.137761      6.000000
  0.050540  0.000000  0.008978      2.000000
  0.063175 -0.041707 -0.013234      6.000000
  0.075810 -0.083414 -0.035446      6.000000
 -0.012635  0.208535  0.120038      6.000000
  0.000000  0.166828  0.097826      6.000000
  0.075810  0.000000 -0.035446      6.000000
  0.088446 -0.041707 -0.057658     12.000000
  0.000000  0.250242  0.097826     12.000000
  0.012635  0.208535  0.075614     12.000000
  0.101081  0.000000 -0.079870      6.000000
  0.012635  0.291949  0.075614     12.000000
  0.025270  0.250242  0.053402      6.000000
 -0.075810  0.000000  0.231098      6.000000
  0.075810  0.000000  0.013467      2.000000
  0.088446 -0.041707 -0.008745      6.000000
  0.000000  0.250242  0.146739      6.000000
  0.101081  0.000000 -0.030956      6.000000
  0.012635  0.291949  0.124527      6.000000
  0.101081  0.000000  0.017957      1.000000
 
 TETIRR: Found    256 inequivalent tetrahedra from     3072


--------------------------------------------------------------------------------------------------------




 Dimension of arrays:
   k-points           NKPTS =     65   k-points in BZ     NKDIM =     65   number of bands    NBANDS=     32
   number of dos      NEDOS =    301   number of ions     NIONS =      3
   non local maximal  LDIM  =      6   non local SUM 2l+1 LMDIM =     18
   total plane-waves  NPLWV =  64000
   max r-space proj   IRMAX =  23416   max aug-charges    IRDMAX= 524807
   dimension x,y,z NGX =    40 NGY =   40 NGZ =   40
   dimension x,y,z NGXF=    80 NGYF=   80 NGZF=   80
   support grid    NGXF=   160 NGYF=  160 NGZF=  160
   ions per type =               1   2
   NGX,Y,Z   is equivalent  to a cutoff of  12.87, 12.87, 12.87 a.u.
   NGXF,Y,Z  is equivalent  to a cutoff of  25.73, 25.73, 25.73 a.u.

 SYSTEM =  unknown system                          
 POSCAR =  Ti1 O2                                  

 Startparameter for this run:
   NWRITE =      2    write-flag & timer
   PREC   = accura    normal or accurate (medium, high low for compatibility)
   ISTART =      0    job   : 0-new  1-cont  2-samecut
   ICHARG =      0    charge: 1-file 2-atom 10-const
   ISPIN  =      2    spin polarized calculation?
   LNONCOLLINEAR =      F non collinear calculations
   LSORBIT =      F    spin-orbit coupling
   INIWAV =      1    electr: 0-lowe 1-rand  2-diag
   LASPH  =      T    aspherical Exc in radial PAW
   METAGGA=      F    non-selfconsistent MetaGGA calc.

 Electronic Relaxation 1
   ENCUT  =  520.0 eV  38.22 Ry    6.18 a.u.   9.61  9.61  9.61*2*pi/ulx,y,z
   ENINI  =  520.0     initial cutoff
   ENAUG  =  605.4 eV  augmentation charge cutoff
   NELM   =    100;   NELMIN=  2; NELMDL= -5     # of ELM steps 
   EDIFF  = 0.2E-03   stopping-criterion for ELM
   LREAL  =      T    real-space projection
   NLSPLINE    = F    spline interpolate recip. space projectors
   LCOMPAT=      F    compatible to vasp.4.4
   GGA_COMPAT  = T    GGA compatible to vasp.4.4-vasp.4.6
   LMAXPAW     = -100 max onsite density
   LMAXMIX     =    2 max onsite mixed and CHGCAR
   VOSKOWN=      0    Vosko Wilk Nusair interpolation
   ROPT   =   -0.00025  -0.00025
 Ionic relaxation
   EDIFFG = 0.2E-02   stopping-criterion for IOM
   NSW    =      0    number of steps for IOM
   NBLOCK =      1;   KBLOCK =      1    inner block; outer block 
   IBRION =     -1    ionic relax: 0-MD 1-quasi-New 2-CG
   NFREE  =      0    steps in history (QN), initial steepest desc. (CG)
   ISIF   =      3    stress and relaxation
   IWAVPR =     10    prediction:  0-non 1-charg 2-wave 3-comb
   ISYM   =      2    0-nonsym 1-usesym 2-fastsym
   LCORR  =      T    Harris-Foulkes like correction to forces

   POTIM  = 0.5000    time-step for ionic-motion
   TEIN   =    0.0    initial temperature
   TEBEG  =    0.0;   TEEND  =   0.0 temperature during run
   SMASS  =  -3.00    Nose mass-parameter (am)
   estimated Nose-frequenzy (Omega)   =  0.10E-29 period in steps =****** mass=  -0.610E-27a.u.
   SCALEE = 1.0000    scale energy and forces
   NPACO  =    256;   APACO  = 16.0  distance and # of slots for P.C.
   PSTRESS=    0.0 pullay stress

  Mass of Ions in am
   POMASS =  47.88 16.00
  Ionic Valenz
   ZVAL   =  10.00  6.00
  Atomic Wigner-Seitz radii
   RWIGS  =  -1.00 -1.00
  virtual crystal weights 
   VCA    =   1.00  1.00
   NELECT =      22.0000    total number of electrons
   NUPDOWN=      -1.0000    fix difference up-down

 DOS related values:
   EMIN   =  10.00;   EMAX   =-10.00  energy-range for DOS
   EFERMI =   0.00
   ISMEAR =    -5;   SIGMA  =   0.05  broadening in eV -4-tet -1-fermi 0-gaus

 Electronic relaxation 2 (details)
   IALGO  =     38    algorithm
   LDIAG  =      T    sub-space diagonalisation (order eigenvalues)
   LSUBROT=      F    optimize rotation matrix (better conditioning)
   TURBO    =      0    0=normal 1=particle mesh
   IRESTART =      0    0=no restart 2=restart with 2 vectors
   NREBOOT  =      0    no. of reboots
   NMIN     =      0    reboot dimension
   EREF     =   0.00    reference energy to select bands
   IMIX   =      4    mixing-type and parameters
     AMIX     =   0.40;   BMIX     =  1.00
     AMIX_MAG =   1.60;   BMIX_MAG =  1.00
     AMIN     =   0.10
     WC   =   100.;   INIMIX=   1;  MIXPRE=   1;  MAXMIX= -45

 Intra band minimization:
   WEIMIN = 0.0000     energy-eigenvalue tresh-hold
   EBREAK =  0.12E-05  absolut break condition
   DEPER  =   0.30     relativ break condition  

   TIME   =   0.40     timestep for ELM

  volume/ion in A,a.u.               =      12.63        85.22
  Fermi-wavevector in a.u.,A,eV,Ry     =   1.365797  2.580983 25.380345  1.865403
  Thomas-Fermi vector in A             =   2.491994
 
 Write flags
   LWAVE        =      F    write WAVECAR
   LDOWNSAMPLE  =      F    k-point downsampling of WAVECAR
   LCHARG       =      T    write CHGCAR
   LVTOT        =      F    write LOCPOT, total local potential
   LVHAR        =      T    write LOCPOT, Hartree potential only
   LELF         =      T    write electronic localiz. function (ELF)
   LORBIT       =     11    0 simple, 1 ext, 2 COOP (PROOUT), +10 PAW based schemes


 Dipole corrections
   LMONO  =      F    monopole corrections only (constant potential shift)
   LDIPOL =      F    correct potential (dipole corrections)
   IDIPOL =      0    1-x, 2-y, 3-z, 4-all directions 
   EPSILON=  1.0000000 bulk dielectric constant

 Exchange correlation treatment:
   GGA     =    --    GGA type
   LEXCH   =     8    internal setting for exchange type
   VOSKOWN=      0    Vosko Wilk Nusair interpolation
   LHFCALC =     F    Hartree Fock is set to
   LHFONE  =     F    Hartree Fock one center treatment
   AEXX    =    0.0000 exact exchange contribution

 Linear response parameters
   LEPSILON=     F    determine dielectric tensor
   LRPA    =     F    only Hartree local field effects (RPA)
   LNABLA  =     F    use nabla operator in PAW spheres
   LVEL    =     F    velocity operator in full k-point grid
   LINTERFAST=   F  fast interpolation
   KINTER  =     0    interpolate to denser k-point grid
   CSHIFT  =0.1000    complex shift for real part using Kramers Kronig
   OMEGAMAX=  -1.0    maximum frequency
   DEG_THRESHOLD= 0.2000000E-02 threshold for treating states as degnerate
   RTIME   =   -0.100 relaxation time in fs
  (WPLASMAI=    0.000 imaginary part of plasma frequency in eV, 0.658/RTIME)
   DFIELD  = 0.0000000 0.0000000 0.0000000 field for delta impulse in time
 
 Orbital magnetization related:
   ORBITALMAG=     F  switch on orbital magnetization
   LCHIMAG   =     F  perturbation theory with respect to B field
   DQ        =  0.001000  dq finite difference perturbation B field
   LLRAUG    =     F  two centre corrections for induced B field



--------------------------------------------------------------------------------------------------------


 Static calculation
 charge density and potential will be updated during run
 spin polarized calculation
 Variant of blocked Davidson
 Davidson routine will perform the subspace rotation
 perform sub-space diagonalisation
    after iterative eigenvector-optimisation
 modified Broyden-mixing scheme, WC =      100.0
 initial mixing is a Kerker type mixing with AMIX =  0.4000 and BMIX =      1.0000
 Hartree-type preconditioning will be used
 using additional bands           21
 real space projection scheme for non local part
 use partial core corrections
 calculate Harris-corrections to forces 
   (improved forces if not selfconsistent)
 use gradient corrections 
 use of overlap-Matrix (Vanderbilt PP)
 Fermi weights with tetrahedron method with Bloechl corrections


--------------------------------------------------------------------------------------------------------


  energy-cutoff  :      520.00
  volume of cell :       37.89
      direct lattice vectors                 reciprocal lattice vectors
     4.946545000 -1.498550000  0.000000000     0.101080653 -0.333655867 -0.177695717
     4.946545000  1.498550000  0.000000000     0.101080653  0.333655867 -0.177695717
     4.492561000  0.000000000  2.555554000     0.000000000  0.000000000  0.391304586

  length of vectors
     5.168554879  5.168554879  5.168554980     0.391304618  0.391304618  0.391304586


 
 k-points in units of 2pi/SCALE and weight: pymatgen v1.1 with grid density = 1964 /
   0.00000000  0.00000000  0.00000000       0.002
   0.01263508 -0.04170698 -0.02221196       0.012
   0.02527016 -0.08341397 -0.04442393       0.012
   0.03790524 -0.12512095 -0.06663589       0.012
   0.05054033 -0.16682793 -0.08884786       0.006
   0.02527016  0.00000000 -0.04442393       0.012
   0.03790524 -0.04170698 -0.06663589       0.023
   0.05054033 -0.08341397 -0.08884786       0.023
   0.06317541 -0.12512095 -0.11105982       0.023
  -0.02527016  0.16682793  0.04442393       0.023
  -0.01263508  0.12512095  0.02221196       0.023
   0.00000000  0.08341397  0.00000000       0.012
   0.05054033  0.00000000 -0.08884786       0.012
   0.06317541 -0.04170698 -0.11105982       0.023
   0.07581049 -0.08341397 -0.13327179       0.023
  -0.01263508  0.20853492  0.02221196       0.023
   0.00000000  0.16682793  0.00000000       0.012
   0.07581049  0.00000000 -0.13327179       0.012
   0.08844557 -0.04170698 -0.15548375       0.023
   0.00000000  0.25024190  0.00000000       0.012
   0.10108065  0.00000000 -0.17769572       0.006
   0.02527016  0.00000000  0.00448914       0.004
   0.03790524 -0.04170698 -0.01772282       0.012
   0.05054033 -0.08341397 -0.03993479       0.012
   0.06317541 -0.12512095 -0.06214675       0.012
  -0.02527016  0.16682793  0.09333700       0.012
  -0.01263508  0.12512095  0.07112504       0.012
   0.00000000  0.08341397  0.04891307       0.012
   0.05054033  0.00000000 -0.03993479       0.012
   0.06317541 -0.04170698 -0.06214675       0.023
   0.07581049 -0.08341397 -0.08435871       0.023
  -0.01263508  0.20853492  0.07112504       0.023
   0.00000000  0.16682793  0.04891307       0.023
   0.01263508  0.12512095  0.02670111       0.023
   0.07581049  0.00000000 -0.08435871       0.012
   0.08844557 -0.04170698 -0.10657068       0.023
   0.00000000  0.25024190  0.04891307       0.023
   0.01263508  0.20853492  0.02670111       0.023
   0.02527016  0.16682793  0.00448914       0.023
   0.10108065  0.00000000 -0.12878264       0.012
   0.01263508  0.29194888  0.02670111       0.023
   0.02527016  0.25024190  0.00448914       0.023
   0.03790524  0.20853492 -0.01772282       0.012
  -0.07581049 -0.00000000  0.18218486       0.012
  -0.06317541 -0.04170698  0.15997290       0.023
  -0.05054033  0.00000000  0.13776093       0.012
   0.05054033  0.00000000  0.00897829       0.004
   0.06317541 -0.04170698 -0.01323368       0.012
   0.07581049 -0.08341397 -0.03544564       0.012
  -0.01263508  0.20853492  0.12003811       0.012
   0.00000000  0.16682793  0.09782615       0.012
   0.07581049  0.00000000 -0.03544564       0.012
   0.08844557 -0.04170698 -0.05765761       0.023
   0.00000000  0.25024190  0.09782615       0.023
   0.01263508  0.20853492  0.07561418       0.023
   0.10108065  0.00000000 -0.07986957       0.012
   0.01263508  0.29194888  0.07561418       0.023
   0.02527016  0.25024190  0.05340222       0.012
  -0.07581049 -0.00000000  0.23109793       0.012
   0.07581049  0.00000000  0.01346743       0.004
   0.08844557 -0.04170698 -0.00874453       0.012
   0.00000000  0.25024190  0.14673922       0.012
   0.10108065  0.00000000 -0.03095650       0.012
   0.01263508  0.29194888  0.12452726       0.012
   0.10108065  0.00000000  0.01795658       0.002
 
 k-points in reciprocal lattice and weights: pymatgen v1.1 with grid density = 1964 /
   0.00000000  0.00000000  0.00000000       0.002
   0.12500000  0.00000000  0.00000000       0.012
   0.25000000  0.00000000  0.00000000       0.012
   0.37500000 -0.00000000 -0.00000000       0.012
   0.50000000  0.00000000  0.00000000       0.006
   0.12500000  0.12500000  0.00000000       0.012
   0.25000000  0.12500000  0.00000000       0.023
   0.37500000  0.12500000  0.00000000       0.023
   0.50000000  0.12500000  0.00000000       0.023
  -0.37500000  0.12500000 -0.00000000       0.023
  -0.25000000  0.12500000  0.00000000       0.023
  -0.12500000  0.12500000  0.00000000       0.012
   0.25000000  0.25000000  0.00000000       0.012
   0.37500000  0.25000000  0.00000000       0.023
   0.50000000  0.25000000  0.00000000       0.023
  -0.37500000  0.25000000  0.00000000       0.023
  -0.25000000  0.25000000  0.00000000       0.012
   0.37500000  0.37500000  0.00000000       0.012
   0.50000000  0.37500000  0.00000000       0.023
  -0.37500000  0.37500000  0.00000000       0.012
   0.50000000  0.50000000  0.00000000       0.006
   0.12500000  0.12500000  0.12500000       0.004
   0.25000000  0.12500000  0.12500000       0.012
   0.37500000  0.12500000  0.12500000       0.012
   0.50000000  0.12500000  0.12500000       0.012
  -0.37500000  0.12500000  0.12500000       0.012
  -0.25000000  0.12500000  0.12500000       0.012
  -0.12500000  0.12500000  0.12500000       0.012
   0.25000000  0.25000000  0.12500000       0.012
   0.37500000  0.25000000  0.12500000       0.023
   0.50000000  0.25000000  0.12500000       0.023
  -0.37500000  0.25000000  0.12500000       0.023
  -0.25000000  0.25000000  0.12500000       0.023
  -0.12500000  0.25000000  0.12500000       0.023
   0.37500000  0.37500000  0.12500000       0.012
   0.50000000  0.37500000  0.12500000       0.023
  -0.37500000  0.37500000  0.12500000       0.023
  -0.25000000  0.37500000  0.12500000       0.023
  -0.12500000  0.37500000  0.12500000       0.023
   0.50000000  0.50000000  0.12500000       0.012
  -0.37500000  0.50000000  0.12500000       0.023
  -0.25000000  0.50000000  0.12500000       0.023
  -0.12500000  0.50000000  0.12500000       0.012
  -0.37500000 -0.37500000  0.12500000       0.012
  -0.25000000 -0.37500000  0.12500000       0.023
  -0.25000000 -0.25000000  0.12500000       0.012
   0.25000000  0.25000000  0.25000000       0.004
   0.37500000  0.25000000  0.25000000       0.012
   0.50000000  0.25000000  0.25000000       0.012
  -0.37500000  0.25000000  0.25000000       0.012
  -0.25000000  0.25000000  0.25000000       0.012
   0.37500000  0.37500000  0.25000000       0.012
   0.50000000  0.37500000  0.25000000       0.023
  -0.37500000  0.37500000  0.25000000       0.023
  -0.25000000  0.37500000  0.25000000       0.023
   0.50000000  0.50000000  0.25000000       0.012
  -0.37500000  0.50000000  0.25000000       0.023
  -0.25000000  0.50000000  0.25000000       0.012
  -0.37500000 -0.37500000  0.25000000       0.012
   0.37500000  0.37500000  0.37500000       0.004
   0.50000000  0.37500000  0.37500000       0.012
  -0.37500000  0.37500000  0.37500000       0.012
   0.50000000  0.50000000  0.37500000       0.012
  -0.37500000  0.50000000  0.37500000       0.012
   0.50000000  0.50000000  0.50000000       0.002
 
 position of ions in fractional coordinates (direct lattice) 
   0.00000000  0.00000000  0.00000000
   0.26714600  0.26714600  0.26714600
   0.73285400  0.73285400  0.73285400
 
 position of ions in cartesian coordinates  (Angst):
   0.00000000  0.00000000  0.00000000
   3.84306912  0.00000000  0.68270603
  10.54258188  0.00000000  1.87284797
 


--------------------------------------------------------------------------------------------------------


 k-point  1 :   0.0000 0.0000 0.0000  plane waves:    1033
 k-point  2 :   0.1250 0.0000 0.0000  plane waves:    1042
 k-point  3 :   0.2500 0.0000 0.0000  plane waves:    1028
 k-point  4 :   0.3750-0.0000-0.0000  plane waves:    1019
 k-point  5 :   0.5000 0.0000 0.0000  plane waves:    1020
 k-point  6 :   0.1250 0.1250 0.0000  plane waves:    1038
 k-point  7 :   0.2500 0.1250 0.0000  plane waves:    1026
 k-point  8 :   0.3750 0.1250 0.0000  plane waves:    1025
 k-point  9 :   0.5000 0.1250 0.0000  plane waves:    1020
 k-point 10 :  -0.3750 0.1250-0.0000  plane waves:    1016
 k-point 11 :  -0.2500 0.1250 0.0000  plane waves:    1021
 k-point 12 :  -0.1250 0.1250 0.0000  plane waves:    1029
 k-point 13 :   0.2500 0.2500 0.0000  plane waves:    1026
 k-point 14 :   0.3750 0.2500 0.0000  plane waves:    1017
 k-point 15 :   0.5000 0.2500 0.0000  plane waves:    1016
 k-point 16 :  -0.3750 0.2500 0.0000  plane waves:    1018
 k-point 17 :  -0.2500 0.2500 0.0000  plane waves:    1028
 k-point 18 :   0.3750 0.3750 0.0000  plane waves:    1008
 k-point 19 :   0.5000 0.3750 0.0000  plane waves:    1008
 k-point 20 :  -0.3750 0.3750 0.0000  plane waves:    1014
 k-point 21 :   0.5000 0.5000 0.0000  plane waves:    1006
 k-point 22 :   0.1250 0.1250 0.1250  plane waves:    1035
 k-point 23 :   0.2500 0.1250 0.1250  plane waves:    1032
 k-point 24 :   0.3750 0.1250 0.1250  plane waves:    1029
 k-point 25 :   0.5000 0.1250 0.1250  plane waves:    1026
 k-point 26 :  -0.3750 0.1250 0.1250  plane waves:    1024
 k-point 27 :  -0.2500 0.1250 0.1250  plane waves:    1013
 k-point 28 :  -0.1250 0.1250 0.1250  plane waves:    1025
 k-point 29 :   0.2500 0.2500 0.1250  plane waves:    1034
 k-point 30 :   0.3750 0.2500 0.1250  plane waves:    1026
 k-point 31 :   0.5000 0.2500 0.1250  plane waves:    1019
 k-point 32 :  -0.3750 0.2500 0.1250  plane waves:    1025
 k-point 33 :  -0.2500 0.2500 0.1250  plane waves:    1015
 k-point 34 :  -0.1250 0.2500 0.1250  plane waves:    1013
 k-point 35 :   0.3750 0.3750 0.1250  plane waves:    1014
 k-point 36 :   0.5000 0.3750 0.1250  plane waves:    1022
 k-point 37 :  -0.3750 0.3750 0.1250  plane waves:    1014
 k-point 38 :  -0.2500 0.3750 0.1250  plane waves:    1016
 k-point 39 :  -0.1250 0.3750 0.1250  plane waves:    1022
 k-point 40 :   0.5000 0.5000 0.1250  plane waves:    1012
 k-point 41 :  -0.3750 0.5000 0.1250  plane waves:    1012
 k-point 42 :  -0.2500 0.5000 0.1250  plane waves:    1016
 k-point 43 :  -0.1250 0.5000 0.1250  plane waves:    1022
 k-point 44 :  -0.3750-0.3750 0.1250  plane waves:    1016
 k-point 45 :  -0.2500-0.3750 0.1250  plane waves:    1013
 k-point 46 :  -0.2500-0.2500 0.1250  plane waves:    1009
 k-point 47 :   0.2500 0.2500 0.2500  plane waves:    1032
 k-point 48 :   0.3750 0.2500 0.2500  plane waves:    1029
 k-point 49 :   0.5000 0.2500 0.2500  plane waves:    1016
 k-point 50 :  -0.3750 0.2500 0.2500  plane waves:    1020
 k-point 51 :  -0.2500 0.2500 0.2500  plane waves:    1010
 k-point 52 :   0.3750 0.3750 0.2500  plane waves:    1024
 k-point 53 :   0.5000 0.3750 0.2500  plane waves:    1027
 k-point 54 :  -0.3750 0.3750 0.2500  plane waves:    1020
 k-point 55 :  -0.2500 0.3750 0.2500  plane waves:    1016
 k-point 56 :   0.5000 0.5000 0.2500  plane waves:    1022
 k-point 57 :  -0.3750 0.5000 0.2500  plane waves:    1027
 k-point 58 :  -0.2500 0.5000 0.2500  plane waves:    1018
 k-point 59 :  -0.3750-0.3750 0.2500  plane waves:    1012
 k-point 60 :   0.3750 0.3750 0.3750  plane waves:    1029
 k-point 61 :   0.5000 0.3750 0.3750  plane waves:    1027
 k-point 62 :  -0.3750 0.3750 0.3750  plane waves:    1021
 k-point 63 :   0.5000 0.5000 0.3750  plane waves:    1028
 k-point 64 :  -0.3750 0.5000 0.3750  plane waves:    1032
 k-point 65 :   0.5000 0.5000 0.5000  plane waves:    1032

 maximum and minimum number of plane-waves per node :      1042     1006

 maximum number of plane-waves:      1042
 maximum index in each direction: 
   IXMAX=    9   IYMAX=    9   IZMAX=    9
   IXMIN=  -10   IYMIN=  -10   IZMIN=  -10


 serial   3D FFT for wavefunctions
 parallel 3D FFT for charge:
    minimum data exchange during FFTs selected (reduces bandwidth)


 total amount of memory used by VASP MPI-rank0    47849. kBytes
=======================================================================

   base      :      30000. kBytes
   nonlr-proj:       5994. kBytes
   fftplans  :       2696. kBytes
   grid      :       6737. kBytes
   one-center:         93. kBytes
   wavefun   :       2329. kBytes
 
     INWAV:  cpu time    0.0004: real time    0.0005
 Broyden mixing: mesh for mixing (old mesh)
   NGX = 19   NGY = 19   NGZ = 19
  (NGX  = 80   NGY  = 80   NGZ  = 80)
  gives a total of   6859 points

 charge density for first step will be calculated from the start-wavefunctions


--------------------------------------------------------------------------------------------------------


 Maximum index for non-local projection operator        22671
 Maximum index for augmentation-charges        15133 (set IRDMAX)


--------------------------------------------------------------------------------------------------------


 initial charge from wavefunction
 First call to EWALD:  gamma=   0.528
 Maximum number of real-space cells 3x 3x 3
 Maximum number of reciprocal cells 4x 4x 4

    FEWALD:  cpu time    0.0051: real time    0.0052


--------------------------------------- Iteration      1(   1)  ---------------------------------------


    POTLOK:  cpu time    0.0811: real time    0.1042
    SETDIJ:  cpu time    1.8116: real time    1.8120
     EDDAV:  cpu time    7.7658: real time    7.7672
 BZINTS: Fermi energy:-41.675475; 22.000000 electrons
         Band energy:***********;  BLOECHL correction: -0.049850
       DOS:  cpu time    0.0882: real time    0.0884
    --------------------------------------------
      LOOP:  cpu time    9.7467: real time    9.7717

 eigenvalue-minimisations  :  8384
 total energy-change (2. order) :-0.4981599E+03  (-0.2319227E+04)
 number of electron      22.0000000 magnetization      -0.0000000
 augmentation part        0.2902799 magnetization      -0.0124498

 Free energy of the ion-electron system (eV)
  ---------------------------------------------------
  alpha Z        PSCENC =        90.20999939
  Ewald energy   TEWEN  =     -1172.43898970
  -Hartree energ DENC   =       -73.30715800
  -exchange      EXHF   =         0.00000000
  -V(xc)+E(xc)   XCENC  =        66.73733426
  PAW double counting   =       649.46426101     -653.00126538
  entropy T*S    EENTRO =         0.00000000
  eigenvalues    EBANDS =     -1312.91623100
  atomic energy  EATOM  =      1907.09216033
  Solvation  Ediel_sol  =         0.00000000
  ---------------------------------------------------
  free energy    TOTEN  =      -498.15988910 eV

  energy without entropy =     -498.15988910  energy(sigma->0) =     -498.15988910


--------------------------------------------------------------------------------------------------------




--------------------------------------- Iteration      1(   2)  ---------------------------------------


     EDDAV:  cpu time    9.6232: real time    9.6268
 BZINTS: Fermi energy:-44.655307; 22.000000 electrons
         Band energy:***********;  BLOECHL correction:  0.000000
       DOS:  cpu time    0.0158: real time    0.0158
    --------------------------------------------
      LOOP:  cpu time    9.6389: real time    9.6426

 eigenvalue-minimisations  : 10400
 total energy-change (2. order) :-0.7225808E+02  (-0.7223306E+02)
 number of electron      22.0000000 magnetization      -0.0000000
 augmentation part        0.2902799 magnetization      -0.0124498

 Free energy of the ion-electron system (eV)
  ---------------------------------------------------
  alpha Z        PSCENC =        90.20999939
  Ewald energy   TEWEN  =     -1172.43898970
  -Hartree energ DENC   =       -73.30715800
  -exchange      EXHF   =         0.00000000
  -V(xc)+E(xc)   XCENC  =        66.73733426
  PAW double counting   =       649.46426101     -653.00126538
  entropy T*S    EENTRO =         0.00000000
  eigenvalues    EBANDS =     -1385.17431519
  atomic energy  EATOM  =      1907.09216033
  Solvation  Ediel_sol  =         0.00000000
  ---------------------------------------------------
  free energy    TOTEN  =      -570.41797328 eV

  energy without entropy =     -570.41797328  energy(sigma->0) =     -570.41797328


--------------------------------------------------------------------------------------------------------




--------------------------------------- Iteration      1(   3)  ---------------------------------------


     EDDAV:  cpu time   13.4997: real time   13.5040
 BZINTS: Fermi energy:-44.961454; 22.000000 electrons
         Band energy:***********;  BLOECHL correction:  0.000000
       DOS:  cpu time    0.0154: real time    0.0154
    --------------------------------------------
      LOOP:  cpu time   13.5150: real time   13.5193

 eigenvalue-minimisations  : 13984
 total energy-change (2. order) :-0.1860651E+01  (-0.1860651E+01)
 number of electron      22.0000000 magnetization      -0.0000000
 augmentation part        0.2902799 magnetization      -0.0124498

 Free energy of the ion-electron system (eV)
  ---------------------------------------------------
  alpha Z        PSCENC =        90.20999939
  Ewald energy   TEWEN  =     -1172.43898970
  -Hartree energ DENC   =       -73.30715800
  -exchange      EXHF   =         0.00000000
  -V(xc)+E(xc)   XCENC  =        66.73733426
  PAW double counting   =       649.46426101     -653.00126538
  entropy T*S    EENTRO =         0.00000000
  eigenvalues    EBANDS =     -1387.03496665
  atomic energy  EATOM  =      1907.09216033
  Solvation  Ediel_sol  =         0.00000000
  ---------------------------------------------------
  free energy    TOTEN  =      -572.27862474 eV

  energy without entropy =     -572.27862474  energy(sigma->0) =     -572.27862474


--------------------------------------------------------------------------------------------------------




--------------------------------------- Iteration      1(   4)  ---------------------------------------


     EDDAV:  cpu time   11.6196: real time   11.6238
 BZINTS: Fermi energy:-45.155609; 22.000000 electrons
         Band energy:***********;  BLOECHL correction:  0.000000
       DOS:  cpu time    0.0152: real time    0.0152
    --------------------------------------------
      LOOP:  cpu time   11.6348: real time   11.6390

 eigenvalue-minimisations  : 12160
 total energy-change (2. order) :-0.5874999E-02  (-0.5874999E-02)
 number of electron      22.0000000 magnetization      -0.0000000
 augmentation part        0.2902799 magnetization      -0.0124498

 Free energy of the ion-electron system (eV)
  ---------------------------------------------------
  alpha Z        PSCENC =        90.20999939
  Ewald energy   TEWEN  =     -1172.43898970
  -Hartree energ DENC   =       -73.30715800
  -exchange      EXHF   =         0.00000000
  -V(xc)+E(xc)   XCENC  =        66.73733426
  PAW double counting   =       649.46426101     -653.00126538
  entropy T*S    EENTRO =         0.00000000
  eigenvalues    EBANDS =     -1387.04084165
  atomic energy  EATOM  =      1907.09216033
  Solvation  Ediel_sol  =         0.00000000
  ---------------------------------------------------
  free energy    TOTEN  =      -572.28449974 eV

  energy without entropy =     -572.28449974  energy(sigma->0) =     -572.28449974


--------------------------------------------------------------------------------------------------------




--------------------------------------- Iteration      1(   5)  ---------------------------------------


     EDDAV:  cpu time   13.5692: real time   13.5741
 BZINTS: Fermi energy:-45.160677; 22.000000 electrons
         Band energy:***********;  BLOECHL correction:  0.000000
       DOS:  cpu time    0.0129: real time    0.0130
    CHARGE:  cpu time    0.3730: real time    0.3730
    MIXING:  cpu time    0.0033: real time    0.0037
    --------------------------------------------
      LOOP:  cpu time   13.9585: real time   13.9639

 eigenvalue-minimisations  : 13984
 total energy-change (2. order) :-0.3289997E-04  (-0.3289997E-04)
 number of electron      22.0000000 magnetization      -0.0000000
 augmentation part        7.5469850 magnetization      -0.0188227

 Broyden mixing:
  rms(total) = 0.10677E+02    rms(broyden)= 0.10667E+02
  rms(prec ) = 0.20875E+02
  weight for this iteration     100.00

 Free energy of the ion-electron system (eV)
  ---------------------------------------------------
  alpha Z        PSCENC =        90.20999939
  Ewald energy   TEWEN  =     -1172.43898970
  -Hartree energ DENC   =       -73.30715800
  -exchange      EXHF   =         0.00000000
  -V(xc)+E(xc)   XCENC  =        66.73733426
  PAW double counting   =       649.46426101     -653.00126538
  entropy T*S    EENTRO =         0.00000000
  eigenvalues    EBANDS =     -1387.04087455
  atomic energy  EATOM  =      1907.09216033
  Solvation  Ediel_sol  =         0.00000000
  ---------------------------------------------------
  free energy    TOTEN  =      -572.28453264 eV

  energy without entropy =     -572.28453264  energy(sigma->0) =     -572.28453264


--------------------------------------------------------------------------------------------------------




--------------------------------------- Iteration      1(   6)  ---------------------------------------


    POTLOK:  cpu time    0.0666: real time    0.0692
    SETDIJ:  cpu time    1.7945: real time    1.7945
     EDDAV:  cpu time    9.4269: real time    9.4282
 BZINTS: Fermi energy:-24.636822; 22.000000 electrons
         Band energy:-960.619275;  BLOECHL correction: -0.041025
       DOS:  cpu time    0.0935: real time    0.0935
    CHARGE:  cpu time    0.3694: real time    0.3694
    MIXING:  cpu time    0.0029: real time    0.0029
    --------------------------------------------
      LOOP:  cpu time   11.7538: real time   11.7578

 eigenvalue-minimisations  : 10048
 total energy-change (2. order) : 0.2852285E+03  (-0.1280282E+03)
 number of electron      22.0000001 magnetization       0.0111287
 augmentation part       11.0860052 magnetization      -0.0054918

 Broyden mixing:
  rms(total) = 0.79011E+01    rms(broyden)= 0.78983E+01
  rms(prec ) = 0.20098E+02
  weight for this iteration     100.00

 eigenvalues of (default mixing * dielectric matrix)
  average eigenvalue GAMMA=   0.6719
  0.6719

 Free energy of the ion-electron system (eV)
  ---------------------------------------------------
  alpha Z        PSCENC =        90.20999939
  Ewald energy   TEWEN  =     -1172.43898970
  -Hartree energ DENC   =      -212.79607925
  -exchange      EXHF   =         0.00000000
  -V(xc)+E(xc)   XCENC  =        75.72219850
  PAW double counting   =       837.59620273     -851.82227394
  entropy T*S    EENTRO =         0.00000000
  eigenvalues    EBANDS =      -960.61927533
  atomic energy  EATOM  =      1907.09216033
  Solvation  Ediel_sol  =         0.00000000
  ---------------------------------------------------
  free energy    TOTEN  =      -287.05605728 eV

  energy without entropy =     -287.05605728  energy(sigma->0) =     -287.05605728


--------------------------------------------------------------------------------------------------------




--------------------------------------- Iteration      1(   7)  ---------------------------------------


    POTLOK:  cpu time    0.0662: real time    0.0692
    SETDIJ:  cpu time    1.8361: real time    1.8362
     EDDAV:  cpu time   10.4032: real time   10.4046
 BZINTS: Fermi energy:-20.453412; 22.000000 electrons
         Band energy:-724.900912;  BLOECHL correction:  0.000000
       DOS:  cpu time    0.0154: real time    0.0154
    CHARGE:  cpu time    0.3657: real time    0.3657
    MIXING:  cpu time    0.0025: real time    0.0025
    --------------------------------------------
      LOOP:  cpu time   12.6891: real time   12.6936

 eigenvalue-minimisations  : 10720
 total energy-change (2. order) : 0.1179715E+03  (-0.1314518E+03)
 number of electron      22.0000000 magnetization       0.0052255
 augmentation part        6.1337881 magnetization       0.0063266

 Broyden mixing:
  rms(total) = 0.51607E+01    rms(broyden)= 0.51591E+01
  rms(prec ) = 0.11024E+02
  weight for this iteration     100.00

 eigenvalues of (default mixing * dielectric matrix)
  average eigenvalue GAMMA=   1.0669
  1.7795  0.3544

 Free energy of the ion-electron system (eV)
  ---------------------------------------------------
  alpha Z        PSCENC =        90.20999939
  Ewald energy   TEWEN  =     -1172.43898970
  -Hartree energ DENC   =      -332.60711336
  -exchange      EXHF   =         0.00000000
  -V(xc)+E(xc)   XCENC  =        79.63148286
  PAW double counting   =      1110.04492181    -1126.11612016
  entropy T*S    EENTRO =         0.00000000
  eigenvalues    EBANDS =      -724.90091201
  atomic energy  EATOM  =      1907.09216033
  Solvation  Ediel_sol  =         0.00000000
  ---------------------------------------------------
  free energy    TOTEN  =      -169.08457086 eV

  energy without entropy =     -169.08457086  energy(sigma->0) =     -169.08457086


--------------------------------------------------------------------------------------------------------




--------------------------------------- Iteration      1(   8)  ---------------------------------------


    POTLOK:  cpu time    0.0668: real time    0.0698
    SETDIJ:  cpu time    1.7998: real time    1.8001
     EDDAV:  cpu time   12.0931: real time   12.0945
 BZINTS: Fermi energy: -1.087689; 22.000000 electrons
         Band energy:-274.317012;  BLOECHL correction:  0.000000
       DOS:  cpu time    0.0161: real time    0.0161
    CHARGE:  cpu time    0.3649: real time    0.3649
    MIXING:  cpu time    0.0025: real time    0.0025
    --------------------------------------------
      LOOP:  cpu time   14.3432: real time   14.3479

 eigenvalue-minimisations  : 12640
 total energy-change (2. order) : 0.1240329E+03  (-0.3068814E+02)
 number of electron      22.0000000 magnetization      -0.0009012
 augmentation part        5.1926980 magnetization      -0.0018464

 Broyden mixing:
  rms(total) = 0.22820E+01    rms(broyden)= 0.22811E+01
  rms(prec ) = 0.44511E+01
  weight for this iteration     100.00

 eigenvalues of (default mixing * dielectric matrix)
  average eigenvalue GAMMA=   1.3538
  1.8436  1.8436  0.3740

 Free energy of the ion-electron system (eV)
  ---------------------------------------------------
  alpha Z        PSCENC =        90.20999939
  Ewald energy   TEWEN  =     -1172.43898970
  -Hartree energ DENC   =      -679.06898513
  -exchange      EXHF   =         0.00000000
  -V(xc)+E(xc)   XCENC  =        96.12752611
  PAW double counting   =      1573.74108336    -1586.39748972
  entropy T*S    EENTRO =         0.00000000
  eigenvalues    EBANDS =      -274.31701163
  atomic energy  EATOM  =      1907.09216033
  Solvation  Ediel_sol  =         0.00000000
  ---------------------------------------------------
  free energy    TOTEN  =       -45.05170698 eV

  energy without entropy =      -45.05170698  energy(sigma->0) =      -45.05170698


--------------------------------------------------------------------------------------------------------




--------------------------------------- Iteration      1(   9)  ---------------------------------------


    POTLOK:  cpu time    0.0690: real time    0.0698
    SETDIJ:  cpu time    1.7971: real time    1.7973
     EDDAV:  cpu time    7.9411: real time    7.9419
 BZINTS: Fermi energy: -3.340287; 22.000000 electrons
         Band energy:-384.009174;  BLOECHL correction:  0.000000
       DOS:  cpu time    0.0157: real time    0.0157
    CHARGE:  cpu time    0.3667: real time    0.3667
    MIXING:  cpu time    0.0025: real time    0.0025
    --------------------------------------------
      LOOP:  cpu time   10.1922: real time   10.1939

 eigenvalue-minimisations  :  8544
 total energy-change (2. order) : 0.1095589E+02  (-0.8340499E+01)
 number of electron      22.0000000 magnetization      -0.0018078
 augmentation part        6.3583166 magnetization      -0.0114732

 Broyden mixing:
  rms(total) = 0.11701E+01    rms(broyden)= 0.11700E+01
  rms(prec ) = 0.27503E+01
  weight for this iteration     100.00

 eigenvalues of (default mixing * dielectric matrix)
  average eigenvalue GAMMA=   1.4370
  2.4274  2.0564  0.3727  0.8916

 Free energy of the ion-electron system (eV)
  ---------------------------------------------------
  alpha Z        PSCENC =        90.20999939
  Ewald energy   TEWEN  =     -1172.43898970
  -Hartree energ DENC   =      -552.70763795
  -exchange      EXHF   =         0.00000000
  -V(xc)+E(xc)   XCENC  =        86.88872887
  PAW double counting   =      1223.65849861    -1232.78940255
  entropy T*S    EENTRO =         0.00000000
  eigenvalues    EBANDS =      -384.00917374
  atomic energy  EATOM  =      1907.09216033
  Solvation  Ediel_sol  =         0.00000000
  ---------------------------------------------------
  free energy    TOTEN  =       -34.09581674 eV

  energy without entropy =      -34.09581674  energy(sigma->0) =      -34.09581674


--------------------------------------------------------------------------------------------------------




--------------------------------------- Iteration      1(  10)  ---------------------------------------


    POTLOK:  cpu time    0.0670: real time    0.0698
    SETDIJ:  cpu time    1.7974: real time    1.7976
     EDDAV:  cpu time   10.8712: real time   10.8722
 BZINTS: Fermi energy:  2.489413; 22.000000 electrons
         Band energy:-247.962286;  BLOECHL correction:  0.000000
       DOS:  cpu time    0.0159: real time    0.0159
    CHARGE:  cpu time    0.3659: real time    0.3660
    MIXING:  cpu time    0.0025: real time    0.0025
    --------------------------------------------
      LOOP:  cpu time   13.1199: real time   13.1240

 eigenvalue-minimisations  : 11648
 total energy-change (2. order) : 0.6981496E+01  (-0.4665237E+01)
 number of electron      22.0000000 magnetization      -0.0002454
 augmentation part        5.9436012 magnetization      -0.0054522

 Broyden mixing:
  rms(total) = 0.58352E+00    rms(broyden)= 0.58326E+00
  rms(prec ) = 0.11845E+01
  weight for this iteration     100.00

 eigenvalues of (default mixing * dielectric matrix)
  average eigenvalue GAMMA=   1.3637
  2.6525  1.5377  1.5377  0.3723  0.7182

 Free energy of the ion-electron system (eV)
  ---------------------------------------------------
  alpha Z        PSCENC =        90.20999939
  Ewald energy   TEWEN  =     -1172.43898970
  -Hartree energ DENC   =      -689.77747783
  -exchange      EXHF   =         0.00000000
  -V(xc)+E(xc)   XCENC  =        92.84237086
  PAW double counting   =      1358.46106034    -1365.54115816
  entropy T*S    EENTRO =         0.00000000
  eigenvalues    EBANDS =      -247.96228600
  atomic energy  EATOM  =      1907.09216033
  Solvation  Ediel_sol  =         0.00000000
  ---------------------------------------------------
  free energy    TOTEN  =       -27.11432078 eV

  energy without entropy =      -27.11432078  energy(sigma->0) =      -27.11432078


--------------------------------------------------------------------------------------------------------




--------------------------------------- Iteration      1(  11)  ---------------------------------------


    POTLOK:  cpu time    0.0663: real time    0.0698
    SETDIJ:  cpu time    1.8149: real time    1.8151
     EDDAV:  cpu time    8.6787: real time    8.6813
 BZINTS: Fermi energy:  1.273633; 22.000000 electrons
         Band energy:-261.112386;  BLOECHL correction:  0.000000
       DOS:  cpu time    0.0173: real time    0.0198
    CHARGE:  cpu time    0.3641: real time    0.3642
    MIXING:  cpu time    0.0025: real time    0.0025
    --------------------------------------------
      LOOP:  cpu time   10.9439: real time   10.9528

 eigenvalue-minimisations  :  9312
 total energy-change (2. order) : 0.6570804E+00  (-0.4832691E+00)
 number of electron      22.0000000 magnetization       0.0002113
 augmentation part        5.7912687 magnetization       0.0003048

 Broyden mixing:
  rms(total) = 0.18334E+00    rms(broyden)= 0.18331E+00
  rms(prec ) = 0.36536E+00
  weight for this iteration     100.00

 eigenvalues of (default mixing * dielectric matrix)
  average eigenvalue GAMMA=   1.3477
  2.6211  1.7946  1.7946  0.3723  0.7518  0.7518

 Free energy of the ion-electron system (eV)
  ---------------------------------------------------
  alpha Z        PSCENC =        90.20999939
  Ewald energy   TEWEN  =     -1172.43898970
  -Hartree energ DENC   =      -674.81520450
  -exchange      EXHF   =         0.00000000
  -V(xc)+E(xc)   XCENC  =        92.28667102
  PAW double counting   =      1346.51486941    -1354.19436083
  entropy T*S    EENTRO =         0.00000000
  eigenvalues    EBANDS =      -261.11238553
  atomic energy  EATOM  =      1907.09216033
  Solvation  Ediel_sol  =         0.00000000
  ---------------------------------------------------
  free energy    TOTEN  =       -26.45724042 eV

  energy without entropy =      -26.45724042  energy(sigma->0) =      -26.45724042


--------------------------------------------------------------------------------------------------------




--------------------------------------- Iteration      1(  12)  ---------------------------------------


    POTLOK:  cpu time    0.0708: real time    0.0834
    SETDIJ:  cpu time    1.7908: real time    1.7909
     EDDAV:  cpu time   10.5135: real time   10.5146
 BZINTS: Fermi energy:  1.339356; 22.000000 electrons
         Band energy:-264.014020;  BLOECHL correction:  0.000000
       DOS:  cpu time    0.0159: real time    0.0159
    CHARGE:  cpu time    0.3637: real time    0.3637
    MIXING:  cpu time    0.0026: real time    0.0026
    --------------------------------------------
      LOOP:  cpu time   12.7574: real time   12.7711

 eigenvalue-minimisations  : 11200
 total energy-change (2. order) : 0.8684343E-02  (-0.2894823E-01)
 number of electron      22.0000000 magnetization      -0.0000457
 augmentation part        5.8485537 magnetization      -0.0003340

 Broyden mixing:
  rms(total) = 0.88409E-01    rms(broyden)= 0.88408E-01
  rms(prec ) = 0.15533E+00
  weight for this iteration     100.00

 eigenvalues of (default mixing * dielectric matrix)
  average eigenvalue GAMMA=   1.4010
  2.9526  1.8656  1.8656  0.3723  1.0471  1.0471  0.6565

 Free energy of the ion-electron system (eV)
  ---------------------------------------------------
  alpha Z        PSCENC =        90.20999939
  Ewald energy   TEWEN  =     -1172.43898970
  -Hartree energ DENC   =      -671.53326529
  -exchange      EXHF   =         0.00000000
  -V(xc)+E(xc)   XCENC  =        92.08193541
  PAW double counting   =      1323.08757402    -1330.93395009
  entropy T*S    EENTRO =         0.00000000
  eigenvalues    EBANDS =      -264.01402015
  atomic energy  EATOM  =      1907.09216033
  Solvation  Ediel_sol  =         0.00000000
  ---------------------------------------------------
  free energy    TOTEN  =       -26.44855608 eV

  energy without entropy =      -26.44855608  energy(sigma->0) =      -26.44855608


--------------------------------------------------------------------------------------------------------




--------------------------------------- Iteration      1(  13)  ---------------------------------------


    POTLOK:  cpu time    0.0653: real time    0.0653
    SETDIJ:  cpu time    1.7911: real time    1.7912
     EDDAV:  cpu time    9.3860: real time    9.3893
 BZINTS: Fermi energy:  1.305975; 22.000000 electrons
         Band energy:-265.130071;  BLOECHL correction:  0.000000
       DOS:  cpu time    0.0167: real time    0.0167
    CHARGE:  cpu time    0.3813: real time    0.3813
    MIXING:  cpu time    0.0030: real time    0.0030
    --------------------------------------------
      LOOP:  cpu time   11.6434: real time   11.6469

 eigenvalue-minimisations  :  9824
 total energy-change (2. order) :-0.1856649E-01  (-0.2934038E-02)
 number of electron      22.0000000 magnetization      -0.0000484
 augmentation part        5.8604476 magnetization      -0.0000281

 Broyden mixing:
  rms(total) = 0.54802E-01    rms(broyden)= 0.54801E-01
  rms(prec ) = 0.10433E+00
  weight for this iteration     100.00

 eigenvalues of (default mixing * dielectric matrix)
  average eigenvalue GAMMA=   1.3858
  2.8342  2.1308  2.1308  0.3723  1.0967  1.0967  0.7854  0.6395

 Free energy of the ion-electron system (eV)
  ---------------------------------------------------
  alpha Z        PSCENC =        90.20999939
  Ewald energy   TEWEN  =     -1172.43898970
  -Hartree energ DENC   =      -670.22090345
  -exchange      EXHF   =         0.00000000
  -V(xc)+E(xc)   XCENC  =        92.01055959
  PAW double counting   =      1313.26046775    -1321.25034587
  entropy T*S    EENTRO =         0.00000000
  eigenvalues    EBANDS =      -265.13007061
  atomic energy  EATOM  =      1907.09216033
  Solvation  Ediel_sol  =         0.00000000
  ---------------------------------------------------
  free energy    TOTEN  =       -26.46712257 eV

  energy without entropy =      -26.46712257  energy(sigma->0) =      -26.46712257


--------------------------------------------------------------------------------------------------------




--------------------------------------- Iteration      1(  14)  ---------------------------------------


    POTLOK:  cpu time    0.0681: real time    0.0681
    SETDIJ:  cpu time    1.8532: real time    1.8533
     EDDAV:  cpu time   11.4141: real time   11.4155
 BZINTS: Fermi energy:  1.074066; 22.000000 electrons
         Band energy:-267.349024;  BLOECHL correction:  0.000000
       DOS:  cpu time    0.0142: real time    0.0142
    CHARGE:  cpu time    0.3793: real time    0.3793
    MIXING:  cpu time    0.0027: real time    0.0027
    --------------------------------------------
      LOOP:  cpu time   13.7317: real time   13.7331

 eigenvalue-minimisations  : 11680
 total energy-change (2. order) : 0.3071869E-02  (-0.3353198E-02)
 number of electron      22.0000000 magnetization       0.0000069
 augmentation part        5.8575324 magnetization      -0.0000169

 Broyden mixing:
  rms(total) = 0.96228E-02    rms(broyden)= 0.95973E-02
  rms(prec ) = 0.16435E-01
  weight for this iteration     100.00

 eigenvalues of (default mixing * dielectric matrix)
  average eigenvalue GAMMA=   1.4207
  2.8848  2.6090  1.7384  1.7384  0.3723  0.9925  0.9925  0.8223  0.6359

 Free energy of the ion-electron system (eV)
  ---------------------------------------------------
  alpha Z        PSCENC =        90.20999939
  Ewald energy   TEWEN  =     -1172.43898970
  -Hartree energ DENC   =      -667.77849443
  -exchange      EXHF   =         0.00000000
  -V(xc)+E(xc)   XCENC  =        91.90079420
  PAW double counting   =      1308.98622557    -1317.08672249
  entropy T*S    EENTRO =         0.00000000
  eigenvalues    EBANDS =      -267.34902357
  atomic energy  EATOM  =      1907.09216033
  Solvation  Ediel_sol  =         0.00000000
  ---------------------------------------------------
  free energy    TOTEN  =       -26.46405070 eV

  energy without entropy =      -26.46405070  energy(sigma->0) =      -26.46405070


--------------------------------------------------------------------------------------------------------




--------------------------------------- Iteration      1(  15)  ---------------------------------------


    POTLOK:  cpu time    0.0673: real time    0.0673
    SETDIJ:  cpu time    1.8628: real time    1.8628
     EDDAV:  cpu time    9.0659: real time    9.0663
 BZINTS: Fermi energy:  1.070210; 22.000000 electrons
         Band energy:-267.622905;  BLOECHL correction:  0.000000
       DOS:  cpu time    0.0140: real time    0.0140
    CHARGE:  cpu time    0.3995: real time    0.3995
    MIXING:  cpu time    0.0026: real time    0.0027
    --------------------------------------------
      LOOP:  cpu time   11.4120: real time   11.4125

 eigenvalue-minimisations  :  9408
 total energy-change (2. order) :-0.4368172E-03  (-0.1117148E-03)
 number of electron      22.0000000 magnetization       0.0000069
 augmentation part        5.8593785 magnetization       0.0000167

 Broyden mixing:
  rms(total) = 0.36331E-02    rms(broyden)= 0.36265E-02
  rms(prec ) = 0.68019E-02
  weight for this iteration     100.00

 eigenvalues of (default mixing * dielectric matrix)
  average eigenvalue GAMMA=   1.3887
  3.0928  2.4403  1.8935  1.8935  0.3723  1.0099  1.0099  0.8403  0.7014  0.6336

 Free energy of the ion-electron system (eV)
  ---------------------------------------------------
  alpha Z        PSCENC =        90.20999939
  Ewald energy   TEWEN  =     -1172.43898970
  -Hartree energ DENC   =      -667.44276554
  -exchange      EXHF   =         0.00000000
  -V(xc)+E(xc)   XCENC  =        91.87898966
  PAW double counting   =      1307.99511064    -1316.13608774
  entropy T*S    EENTRO =         0.00000000
  eigenvalues    EBANDS =      -267.62290455
  atomic energy  EATOM  =      1907.09216033
  Solvation  Ediel_sol  =         0.00000000
  ---------------------------------------------------
  free energy    TOTEN  =       -26.46448752 eV

  energy without entropy =      -26.46448752  energy(sigma->0) =      -26.46448752


--------------------------------------------------------------------------------------------------------




--------------------------------------- Iteration      1(  16)  ---------------------------------------


    POTLOK:  cpu time    0.0683: real time    0.0683
    SETDIJ:  cpu time    1.8648: real time    1.8649
     EDDAV:  cpu time   11.8445: real time   11.8451
 BZINTS: Fermi energy:  1.071261; 22.000000 electrons
         Band energy:-267.569416;  BLOECHL correction:  0.000000
       DOS:  cpu time    0.0139: real time    0.0139
    --------------------------------------------
      LOOP:  cpu time   13.7914: real time   13.7920

 eigenvalue-minimisations  : 12032
 total energy-change (2. order) :-0.3747583E-04  (-0.1053940E-04)
 number of electron      22.0000000 magnetization       0.0000069
 augmentation part        5.8593785 magnetization       0.0000167

 Free energy of the ion-electron system (eV)
  ---------------------------------------------------
  alpha Z        PSCENC =        90.20999939
  Ewald energy   TEWEN  =     -1172.43898970
  -Hartree energ DENC   =      -667.49557083
  -exchange      EXHF   =         0.00000000
  -V(xc)+E(xc)   XCENC  =        91.88125586
  PAW double counting   =      1308.14778100    -1316.29174508
  entropy T*S    EENTRO =         0.00000000
  eigenvalues    EBANDS =      -267.56941597
  atomic energy  EATOM  =      1907.09216033
  Solvation  Ediel_sol  =         0.00000000
  ---------------------------------------------------
  free energy    TOTEN  =       -26.46452500 eV

  energy without entropy =      -26.46452500  energy(sigma->0) =      -26.46452500


--------------------------------------------------------------------------------------------------------




 average (electrostatic) potential at core
  the test charge radii are     1.0397  0.7215
  (the norm of the test charge is              1.0000)
       1 -55.8806       2 -72.6795       3 -72.6795
 
 
 
 E-fermi :   1.0713     XC(G=0):  -9.9889     alpha+bet :-10.2283


 spin component 1

 k-point     1 :       0.0000    0.0000    0.0000
  band No.  band energies     occupation 
      1     -31.7903      1.00000
      2     -31.5146      1.00000
      3     -31.5146      1.00000
      4     -16.5787      1.00000
      5     -14.7062      1.00000
      6      -3.0501      1.00000
      7      -2.7271      1.00000
      8      -2.7271      1.00000
      9       0.7274      1.00000
     10       0.7274      1.00000
     11       0.7765      1.00000
     12       3.5012      0.00000
     13       3.5012      0.00000
     14       5.2094      0.00000
     15       7.6369      0.00000
     16       7.6369      0.00000
     17       8.6295      0.00000
     18      12.3237      0.00000
     19      16.0781      0.00000
     20      21.7651      0.00000
     21      21.8067      0.00000
     22      21.8067      0.00000
     23      22.8417      0.00000
     24      24.8597      0.00000
     25      24.8597      0.00000
     26      26.3656      0.00000
     27      27.4194      0.00000
     28      29.6961      0.00000
     29      30.8985      0.00000
     30      30.8985      0.00000
     31      32.0935      0.00000
     32      32.0935      0.00000

 k-point     2 :       0.1250    0.0000    0.0000
  band No.  band energies     occupation 
      1     -31.7727      1.00000
      2     -31.5997      1.00000
      3     -31.5306      1.00000
      4     -16.3780      1.00000
      5     -14.8136      1.00000
      6      -2.8542      1.00000
      7      -2.7075      1.00000
      8      -2.5725      1.00000
      9      -0.0163      1.00000
     10       0.4079      1.00000
     11       0.9097      1.00000
     12       3.7205      0.00000
     13       3.8419      0.00000
     14       5.1434      0.00000
     15       7.2506      0.00000
     16       7.5448      0.00000
     17       9.2595      0.00000
     18      13.0224      0.00000
     19      16.2134      0.00000
     20      20.3171      0.00000
     21      20.9017      0.00000
     22      22.2734      0.00000
     23      22.8428      0.00000
     24      24.4803      0.00000
     25      25.0295      0.00000
     26      26.2384      0.00000
     27      28.1542      0.00000
     28      29.1020      0.00000
     29      29.5547      0.00000
     30      30.1390      0.00000
     31      30.8797      0.00000
     32      32.5963      0.00000

 k-point     3 :       0.2500    0.0000    0.0000
  band No.  band energies     occupation 
      1     -31.8025      1.00000
      2     -31.7262      1.00000
      3     -31.5688      1.00000
      4     -15.9103      1.00000
      5     -15.0358      1.00000
      6      -2.8209      1.00000
      7      -2.2196      1.00000
      8      -2.1408      1.00000
      9      -1.2530      1.00000
     10      -0.0945      1.00000
     11       0.9399      1.00000
     12       3.9644      0.00000
     13       4.3511      0.00000
     14       4.9398      0.00000
     15       6.7344      0.00000
     16       7.4128      0.00000
     17      10.7550      0.00000
     18      14.3299      0.00000
     19      16.5341      0.00000
     20      18.1745      0.00000
     21      19.5274      0.00000
     22      22.8409      0.00000
     23      23.3133      0.00000
     24      23.6399      0.00000
     25      23.7653      0.00000
     26      25.1267      0.00000
     27      27.1102      0.00000
     28      28.2804      0.00000
     29      29.0562      0.00000
     30      31.0652      0.00000
     31      31.7426      0.00000
     32      33.6793      0.00000

 k-point     4 :       0.3750   -0.0000   -0.0000
  band No.  band energies     occupation 
      1     -31.9932      1.00000
      2     -31.6837      1.00000
      3     -31.6067      1.00000
      4     -15.6289      1.00000
      5     -15.0382      1.00000
      6      -3.1359      1.00000
      7      -1.9605      1.00000
      8      -1.9078      1.00000
      9      -1.1618      1.00000
     10      -0.3015      1.00000
     11       0.4601      1.00000
     12       3.9769      0.00000
     13       4.5310      0.00000
     14       4.6805      0.00000
     15       6.8092      0.00000
     16       7.4415      0.00000
     17      12.3098      0.00000
     18      15.0187      0.00000
     19      15.9380      0.00000
     20      17.4863      0.00000
     21      19.0895      0.00000
     22      21.2289      0.00000
     23      22.8453      0.00000
     24      23.2573      0.00000
     25      23.7798      0.00000
     26      24.6396      0.00000
     27      26.2594      0.00000
     28      27.7604      0.00000
     29      30.8654      0.00000
     30      32.3060      0.00000
     31      32.3791      0.00000
     32      34.2903      0.00000

 k-point     5 :       0.5000    0.0000    0.0000
  band No.  band energies     occupation 
      1     -32.0706      1.00000
      2     -31.6654      1.00000
      3     -31.6223      1.00000
      4     -15.6466      1.00000
      5     -14.8929      1.00000
      6      -3.4644      1.00000
      7      -1.9091      1.00000
      8      -1.5638      1.00000
      9      -1.0181      1.00000
     10      -0.2853      1.00000
     11       0.1504      1.00000
     12       3.8567      0.00000
     13       4.5190      0.00000
     14       4.5880      0.00000
     15       7.0213      0.00000
     16       7.5028      0.00000
     17      13.1600      0.00000
     18      14.9833      0.00000
     19      15.0031      0.00000
     20      18.0217      0.00000
     21      19.4775      0.00000
     22      19.8205      0.00000
     23      22.8446      0.00000
     24      23.2507      0.00000
     25      23.4570      0.00000
     26      24.4908      0.00000
     27      25.9483      0.00000
     28      28.1356      0.00000
     29      31.5095      0.00000
     30      33.4865      0.00000
     31      34.1597      0.00000
     32      34.4375      0.00000

 k-point     6 :       0.1250    0.1250    0.0000
  band No.  band energies     occupation 
      1     -31.7728      1.00000
      2     -31.5996      1.00000
      3     -31.5306      1.00000
      4     -16.3739      1.00000
      5     -14.8191      1.00000
      6      -2.8055      1.00000
      7      -2.7312      1.00000
      8      -2.5741      1.00000
      9      -0.0539      1.00000
     10       0.4154      1.00000
     11       0.9102      1.00000
     12       3.7126      0.00000
     13       3.8374      0.00000
     14       5.1389      0.00000
     15       7.2971      0.00000
     16       7.5379      0.00000
     17       9.2650      0.00000
     18      13.0134      0.00000
     19      16.1757      0.00000
     20      20.4320      0.00000
     21      20.7359      0.00000
     22      22.1979      0.00000
     23      22.8428      0.00000
     24      24.6989      0.00000
     25      25.0963      0.00000
     26      26.0967      0.00000
     27      28.5340      0.00000
     28      29.0902      0.00000
     29      29.3891      0.00000
     30      29.8444      0.00000
     31      31.5382      0.00000
     32      31.9760      0.00000

 k-point     7 :       0.2500    0.1250    0.0000
  band No.  band energies     occupation 
      1     -31.7429      1.00000
      2     -31.7320      1.00000
      3     -31.5669      1.00000
      4     -16.0285      1.00000
      5     -14.9941      1.00000
      6      -2.7698      1.00000
      7      -2.3607      1.00000
      8      -2.3208      1.00000
      9      -0.7910      1.00000
     10      -0.2091      1.00000
     11       1.0090      1.00000
     12       4.0827      0.00000
     13       4.1091      0.00000
     14       4.9882      0.00000
[...]
     17      10.7814      0.00000
     18      11.9795      0.00000
     19      15.5234      0.00000
     20      20.5955      0.00000
     21      22.0481      0.00000
     22      22.7931      0.00000
     23      22.8401      0.00000
     24      23.2565      0.00000
     25      24.6896      0.00000
     26      25.9135      0.00000
     27      27.0282      0.00000
     28      28.5885      0.00000
     29      29.7743      0.00000
     30      30.5438      0.00000
     31      31.4352      0.00000
     32      33.3598      0.00000

 k-point    62 :      -0.3750    0.3750    0.3750
  band No.  band energies     occupation 
      1     -31.8028      1.00000
      2     -31.7269      1.00000
      3     -31.5691      1.00000
      4     -15.8518      1.00000
      5     -15.1004      1.00000
      6      -3.0087      1.00000
      7      -2.1916      1.00000
      8      -1.9846      1.00000
      9      -0.9309      1.00000
     10      -0.1383      1.00000
     11       0.7179      1.00000
     12       3.8500      0.00000
     13       4.3471      0.00000
     14       4.8997      0.00000
     15       6.5873      0.00000
     16       7.4430      0.00000
     17      11.7678      0.00000
     18      13.0818      0.00000
     19      16.7898      0.00000
     20      18.4794      0.00000
     21      20.3175      0.00000
     22      21.7039      0.00000
     23      22.8454      0.00000
     24      23.4526      0.00000
     25      24.0641      0.00000
     26      24.4119      0.00000
     27      25.9362      0.00000
     28      29.3100      0.00000
     29      30.9714      0.00000
     30      32.6988      0.00000
     31      33.5874      0.00000
     32      34.3651      0.00000

 k-point    63 :       0.5000    0.5000    0.3750
  band No.  band energies     occupation 
      1     -31.7737      1.00000
      2     -31.6000      1.00000
      3     -31.5309      1.00000
      4     -16.3059      1.00000
      5     -14.9101      1.00000
      6      -2.8599      1.00000
      7      -2.5564      1.00000
      8      -2.2380      1.00000
      9      -0.0695      1.00000
     10       0.2868      1.00000
     11       0.3794      1.00000
     12       3.6773      0.00000
     13       3.8401      0.00000
     14       5.1151      0.00000
     15       7.1742      0.00000
     16       7.5574      0.00000
     17      10.8580      0.00000
     18      11.8935      0.00000
     19      15.5087      0.00000
     20      20.6027      0.00000
     21      22.1247      0.00000
     22      22.6506      0.00000
     23      22.8357      0.00000
     24      22.9661      0.00000
     25      25.2833      0.00000
     26      26.3192      0.00000
     27      26.4607      0.00000
     28      28.4483      0.00000
     29      29.8196      0.00000
     30      30.7469      0.00000
     31      31.5242      0.00000
     32      32.7360      0.00000

 k-point    64 :      -0.3750    0.5000    0.3750
  band No.  band energies     occupation 
      1     -31.7437      1.00000
      2     -31.7323      1.00000
      3     -31.5672      1.00000
      4     -15.9700      1.00000
      5     -15.0623      1.00000
      6      -2.9430      1.00000
      7      -2.3309      1.00000
      8      -2.0009      1.00000
      9      -0.6318      1.00000
     10      -0.2345      1.00000
     11       0.6741      1.00000
     12       4.0364      0.00000
     13       4.0612      0.00000
     14       4.9639      0.00000
     15       6.7726      0.00000
     16       7.3494      0.00000
     17      11.5481      0.00000
     18      12.7541      0.00000
     19      16.5153      0.00000
     20      19.2328      0.00000
     21      20.1447      0.00000
     22      21.9902      0.00000
     23      22.8462      0.00000
     24      23.7815      0.00000
     25      24.7470      0.00000
     26      24.7840      0.00000
     27      25.2181      0.00000
     28      30.4929      0.00000
     29      30.9345      0.00000
     30      31.2099      0.00000
     31      33.3597      0.00000
     32      33.8919      0.00000

 k-point    65 :       0.5000    0.5000    0.5000
  band No.  band energies     occupation 
      1     -31.7914      1.00000
      2     -31.5150      1.00000
      3     -31.5150      1.00000
      4     -16.5021      1.00000
      5     -14.8180      1.00000
      6      -2.7125      1.00000
      7      -2.7125      1.00000
      8      -2.4014      1.00000
      9      -0.2181      1.00000
     10       0.6946      1.00000
     11       0.6946      1.00000
     12       3.5063      0.00000
     13       3.5063      0.00000
     14       5.1735      0.00000
     15       7.6466      0.00000
     16       7.6466      0.00000
     17      10.4839      0.00000
     18      11.2382      0.00000
     19      14.8766      0.00000
     20      22.3418      0.00000
     21      22.3418      0.00000
     22      22.5944      0.00000
     23      22.8429      0.00000
     24      24.9451      0.00000
     25      24.9451      0.00000
     26      25.8144      0.00000
     27      28.8747      0.00000
     28      28.8747      0.00000
     29      28.9175      0.00000
     30      29.0426      0.00000
     31      29.0426      0.00000
     32      31.6428      0.00000


--------------------------------------------------------------------------------------------------------


 soft charge-density along one line, spin component           1
         0         1         2         3         4         5         6         7         8         9
 total charge-density along one line
 
 soft charge-density along one line, spin component           2
         0         1         2         3         4         5         6         7         8         9
 total charge-density along one line
 
 pseudopotential strength for first ion, spin component:           1
-31.875  -0.000  -0.000  15.224   0.000   0.000   0.000  -0.000
 -0.000 -31.877  -0.008   0.000  15.225   0.006  -0.000  -0.000
 -0.000  -0.008 -31.921   0.000   0.006  15.258  -0.000  -0.000
 15.224   0.000   0.000  -2.360  -0.000  -0.000  -0.000   0.000
  0.000  15.225   0.006  -0.000  -2.361  -0.004   0.000   0.000
  0.000   0.006  15.258  -0.000  -0.004  -2.383   0.000   0.000
  0.000  -0.000  -0.000  -0.000   0.000   0.000  -4.826  -0.005
 -0.000  -0.000  -0.000   0.000   0.000   0.000  -0.005  -4.810
  0.000  -0.000  -0.000  -0.000   0.000   0.000   0.000  -0.000
 -0.000   0.000  -0.000   0.000  -0.000   0.000  -0.000  -0.000
  0.000   0.000   0.000  -0.000  -0.000  -0.000   0.000   0.000
  0.000  -0.000  -0.000  -0.000   0.000   0.000   0.135  -0.001
 -0.000  -0.000  -0.000   0.000   0.000   0.000  -0.001   0.138
  0.000  -0.000  -0.000  -0.000   0.000   0.000   0.000  -0.000
 -0.000   0.000  -0.000   0.000  -0.000   0.000  -0.000  -0.000
  0.000   0.000   0.000  -0.000  -0.000  -0.000   0.000   0.000
  0.000   0.000  -0.000  -0.000  -0.000   0.000   0.000   0.000
 -0.000  -0.000   0.000   0.000   0.000  -0.000  -0.000  -0.000
 pseudopotential strength for first ion, spin component:           2
-31.876  -0.000  -0.000  15.224   0.000   0.000   0.000  -0.000
 -0.000 -31.877  -0.008   0.000  15.225   0.006  -0.000  -0.000
 -0.000  -0.008 -31.921   0.000   0.006  15.258  -0.000  -0.000
 15.224   0.000   0.000  -2.360  -0.000  -0.000  -0.000   0.000
  0.000  15.225   0.006  -0.000  -2.361  -0.004   0.000   0.000
  0.000   0.006  15.258  -0.000  -0.004  -2.383   0.000   0.000
  0.000  -0.000  -0.000  -0.000   0.000   0.000  -4.826  -0.005
 -0.000  -0.000  -0.000   0.000   0.000   0.000  -0.005  -4.811
  0.000  -0.000  -0.000  -0.000   0.000   0.000   0.000  -0.000
 -0.000   0.000  -0.000   0.000  -0.000   0.000  -0.000  -0.000
  0.000   0.000   0.000  -0.000  -0.000  -0.000   0.000   0.000
  0.000  -0.000  -0.000  -0.000   0.000   0.000   0.135  -0.001
 -0.000  -0.000  -0.000   0.000   0.000   0.000  -0.001   0.138
  0.000  -0.000  -0.000  -0.000   0.000   0.000   0.000  -0.000
 -0.000   0.000  -0.000   0.000  -0.000   0.000  -0.000  -0.000
  0.000   0.000   0.000  -0.000  -0.000  -0.000   0.000   0.000
  0.000   0.000  -0.000  -0.000  -0.000   0.000   0.000   0.000
 -0.000  -0.000   0.000   0.000   0.000  -0.000  -0.000  -0.000
 total augmentation occupancy for first ion, spin component:           1
  1.962  -0.000   0.000   0.014   0.000   0.000   0.000   0.000   0.000   0.000   0.000   0.000   0.000   0.000   0.000   0.000
  0.000   1.962  -0.002   0.000   0.013  -0.004   0.000   0.000   0.000   0.000   0.000   0.000   0.000   0.000   0.000   0.000
  0.000  -0.002   1.953   0.000  -0.004  -0.011   0.000   0.000   0.000   0.000   0.000   0.000   0.000   0.000   0.000   0.000
  0.014   0.000   0.000   0.356   0.000   0.000   0.000   0.000   0.000   0.000   0.000   0.000   0.000   0.000   0.000   0.000
  0.000   0.013  -0.004  -0.000   0.353  -0.013   0.000   0.000   0.000   0.000   0.000   0.000   0.000   0.000   0.000   0.000
  0.000  -0.004  -0.011   0.000  -0.013   0.282   0.000   0.000   0.000   0.000   0.000   0.000   0.000   0.000   0.000   0.000
  0.000   0.000   0.000   0.000   0.000   0.000   0.707  -0.226   0.000   0.000   0.000  -0.718   0.278   0.000   0.000   0.000
  0.000   0.000   0.000   0.000   0.000   0.000  -0.226   0.502   0.000   0.000   0.000   0.276  -0.515   0.000   0.000   0.000
  0.000   0.000   0.000   0.000   0.000   0.000  -0.000   0.000   0.662   0.226   0.095   0.000   0.000  -0.696  -0.262  -0.130
  0.000   0.000   0.000   0.000   0.000   0.000   0.000   0.000   0.226   0.517   0.059   0.000   0.000  -0.263  -0.491  -0.069
  0.000   0.000   0.000   0.000   0.000   0.000   0.000   0.000   0.095   0.059   0.369   0.000   0.000  -0.129  -0.068  -0.330
  0.000   0.000   0.000   0.000   0.000   0.000  -0.718   0.276   0.000   0.000   0.000   0.934  -0.447   0.000   0.000   0.000
  0.000   0.000   0.000   0.000   0.000   0.000   0.278  -0.515   0.000   0.000   0.000  -0.447   0.632   0.000   0.000   0.000
  0.000   0.000   0.000   0.000   0.000   0.000   0.000   0.000  -0.696  -0.263  -0.129   0.000   0.000   0.921   0.412   0.206
  0.000   0.000   0.000   0.000   0.000   0.000   0.000   0.000  -0.262  -0.491  -0.068   0.000  -0.000   0.412   0.575   0.114
  0.000   0.000   0.000   0.000   0.000   0.000   0.000   0.000  -0.130  -0.069  -0.330   0.000   0.000   0.206   0.114   0.340
  0.000   0.000   0.000   0.000   0.000   0.000  -0.000   0.000   0.070  -0.046  -0.130   0.000   0.000  -0.120   0.079   0.222
  0.000   0.000   0.000   0.000   0.000   0.000   0.000   0.000  -0.008   0.006   0.016   0.000   0.000   0.016  -0.010  -0.029
 total augmentation occupancy for first ion, spin component:           2
  0.000   0.000   0.000  -0.000   0.000  -0.000   0.000   0.000   0.000   0.000   0.000   0.000   0.000   0.000   0.000   0.000
  0.000   0.000   0.000   0.000  -0.000   0.000   0.000   0.000   0.000   0.000   0.000   0.000   0.000   0.000   0.000   0.000
  0.000   0.000   0.000   0.000   0.000   0.000   0.000   0.000   0.000   0.000   0.000   0.000   0.000   0.000   0.000   0.000
 -0.000   0.000   0.000  -0.000  -0.000   0.000   0.000   0.000   0.000   0.000   0.000   0.000   0.000   0.000   0.000   0.000
  0.000  -0.000   0.000   0.000  -0.000  -0.000   0.000   0.000   0.000   0.000   0.000   0.000   0.000   0.000   0.000   0.000
 -0.000   0.000   0.000   0.000  -0.000  -0.000   0.000   0.000   0.000   0.000   0.000   0.000   0.000   0.000   0.000   0.000
  0.000   0.000   0.000   0.000   0.000   0.000  -0.000  -0.000   0.000   0.000   0.000  -0.000  -0.000  -0.000   0.000   0.000
  0.000   0.000   0.000   0.000   0.000   0.000  -0.000  -0.000   0.000   0.000  -0.000   0.000   0.000   0.000   0.000   0.000
  0.000   0.000   0.000   0.000   0.000   0.000   0.000   0.000  -0.000   0.000   0.000   0.000   0.000   0.000  -0.000   0.000
  0.000   0.000   0.000   0.000   0.000   0.000   0.000   0.000   0.000  -0.000  -0.000   0.000   0.000  -0.000  -0.000   0.000
  0.000   0.000   0.000   0.000   0.000   0.000   0.000   0.000   0.000  -0.000  -0.000   0.000   0.000  -0.000  -0.000   0.000
  0.000   0.000   0.000   0.000   0.000   0.000  -0.000   0.000   0.000   0.000   0.000   0.000   0.000   0.000  -0.000   0.000
  0.000   0.000   0.000   0.000   0.000   0.000  -0.000   0.000   0.000   0.000   0.000   0.000  -0.000   0.000   0.000  -0.000
  0.000   0.000   0.000   0.000   0.000   0.000   0.000   0.000   0.000  -0.000  -0.000   0.000   0.000  -0.000   0.000  -0.000
  0.000   0.000   0.000   0.000   0.000   0.000   0.000   0.000  -0.000  -0.000  -0.000   0.000   0.000   0.000   0.000  -0.000
  0.000   0.000   0.000   0.000   0.000   0.000   0.000   0.000   0.000   0.000   0.000   0.000  -0.000  -0.000  -0.000  -0.000
  0.000   0.000   0.000   0.000   0.000   0.000   0.000   0.000   0.000  -0.000  -0.000  -0.000   0.000  -0.000   0.000   0.000
  0.000   0.000   0.000   0.000   0.000   0.000   0.000  -0.000   0.000  -0.000  -0.000   0.000   0.000  -0.000   0.000   0.000


------------------------ aborting loop because EDIFF is reached ----------------------------------------


 


 total charge     
 
# of ion       s       p       d       tot
------------------------------------------
    1        0.306   6.457   1.953   8.716
    2        1.578   3.454   0.000   5.032
    3        1.578   3.454   0.000   5.032
--------------------------------------------------
tot          3.461  13.365   1.953  18.780
 


 magnetization (x)
 
# of ion       s       p       d       tot
------------------------------------------
    1       -0.000  -0.000  -0.000  -0.000
    2       -0.000   0.000   0.000   0.000
    3       -0.000   0.000   0.000   0.000
--------------------------------------------------
tot         -0.000   0.000  -0.000  -0.000
 
    CHARGE:  cpu time    0.3892: real time    0.3892
    FORLOC:  cpu time    0.0015: real time    0.0015
    FORNL :  cpu time    4.0941: real time    4.0943
    STRESS:  cpu time   12.3211: real time   12.3224
    FORCOR:  cpu time    0.0610: real time    0.0612
    FORHAR:  cpu time    0.0060: real time    0.0062
    MIXING:  cpu time    0.0218: real time    0.0311
    OFIELD:  cpu time    0.0002: real time    0.0002

  FORCE on cell =-STRESS in cart. coord.  units (eV):
  Direction    XX          YY          ZZ          XY          YZ          ZX
  --------------------------------------------------------------------------------------
  Alpha Z    90.21000    90.21000    90.21000
  Ewald   -1002.90731   -70.04661   -99.48600     0.00000     0.00000  -165.71903
  Hartree  -197.70479   442.69229   422.48256    -0.00000    -0.00000  -113.76401
  E(xc)    -107.55866  -107.07749  -107.09268    -0.00000     0.00000    -0.08548
  Local     859.74096  -706.02528  -656.61263    -0.00000    -0.00000   278.15219
  n-local   -68.77424   -66.69117   -66.91426    -1.98331    -1.10444     0.03729
  augment    64.96118    65.03389    65.03160     0.00000    -0.00000    -0.01292
  Kinetic   361.88587   352.68236   351.93544    -0.40318    -3.66865     2.13677
  Fock        0.00000     0.00000     0.00000     0.00000     0.00000     0.00000
  -------------------------------------------------------------------------------------
  Total       0.09827     0.04250     0.04426     0.00000    -0.00000     0.00991
  in kB       4.15550     1.79712     1.87154     0.00000    -0.00000     0.41896
  external pressure =        2.61 kB  Pullay stress =        0.00 kB


 VOLUME and BASIS-vectors are now :
 -----------------------------------------------------------------------------
  energy-cutoff  :      520.00
  volume of cell :       37.89
      direct lattice vectors                 reciprocal lattice vectors
     4.946545000 -1.498550000  0.000000000     0.101080653 -0.333655867 -0.177695717
     4.946545000  1.498550000  0.000000000     0.101080653  0.333655867 -0.177695717
     4.492561000  0.000000000  2.555554000     0.000000000  0.000000000  0.391304586

  length of vectors
     5.168554879  5.168554879  5.168554980     0.391304618  0.391304618  0.391304586


 FORCES acting on ions
    electron-ion (+dipol)            ewald-force                    non-local-force                 convergence-correction
 -----------------------------------------------------------------------------------------------
   -.263E-13 0.931E-14 -.185E-13   0.114E-12 -.193E-14 0.000E+00   -.127E-24 0.102E-24 0.121E-24   -.179E-12 -.662E-14 -.336E-13
   0.319E+03 0.180E-11 0.567E+02   -.338E+03 -.930E-14 -.601E+02   0.192E+02 0.440E-16 0.342E+01   0.266E-01 -.679E-14 0.472E-02
   -.319E+03 -.280E-11 -.567E+02   0.338E+03 0.921E-14 0.601E+02   -.192E+02 -.299E-16 -.342E+01   -.266E-01 0.302E-13 -.472E-02
 -----------------------------------------------------------------------------------------------
   0.801E-11 -.989E-12 0.146E-11   0.000E+00 -.203E-14 0.000E+00   -.355E-14 0.141E-16 0.000E+00   -.237E-12 0.168E-13 -.363E-13
 
 
 POSITION                                       TOTAL-FORCE (eV/Angst)
 -----------------------------------------------------------------------------------
      0.00000      0.00000      0.00000         0.000000     -0.000000      0.000000
      3.84307      0.00000      0.68271         0.014570      0.000000      0.002588
     10.54258      0.00000      1.87285        -0.014570     -0.000000     -0.002588
 -----------------------------------------------------------------------------------
    total drift:                                0.000000     -0.000000      0.000000


--------------------------------------------------------------------------------------------------------



  FREE ENERGIE OF THE ION-ELECTRON SYSTEM (eV)
  ---------------------------------------------------
  free  energy   TOTEN  =       -26.46452500 eV

  energy  without entropy=      -26.46452500  energy(sigma->0) =      -26.46452500
 


--------------------------------------------------------------------------------------------------------


    POTLOK:  cpu time    1.9445: real time    1.9446


--------------------------------------------------------------------------------------------------------


     LOOP+:  cpu time  220.6134: real time  221.0215
    4ORBIT:  cpu time    0.0000: real time    0.0000
 


 total charge     
 
# of ion       s       p       d       tot
------------------------------------------
    1        0.306   6.457   1.953   8.716
    2        1.578   3.454   0.000   5.032
    3        1.578   3.454   0.000   5.032
--------------------------------------------------
tot          3.461  13.365   1.953  18.780
 


 magnetization (x)
 
# of ion       s       p       d       tot
------------------------------------------
    1       -0.000  -0.000  -0.000  -0.000
    2       -0.000   0.000   0.000   0.000
    3       -0.000   0.000   0.000   0.000
--------------------------------------------------
tot         -0.000   0.000  -0.000  -0.000
 
 BZINTS: Fermi energy:  1.071261; 22.000000 electrons
         Band energy:-267.569416;  BLOECHL correction:  0.000000

 total amount of memory used by VASP MPI-rank0    47849. kBytes
=======================================================================

   base      :      30000. kBytes
   nonlr-proj:       5994. kBytes
   fftplans  :       2696. kBytes
   grid      :       6737. kBytes
   one-center:         93. kBytes
   wavefun   :       2329. kBytes
 
  
  
 General timing and accounting informations for this job:
 ========================================================
  
                  Total CPU time used (sec):      250.949
                            User time (sec):      240.507
                          System time (sec):       10.442
                         Elapsed time (sec):      252.400
  
                   Maximum memory used (kb):      349556.
                   Average memory used (kb):           0.
  
                          Minor page faults:        40350
                          Major page faults:           15
                 Voluntary context switches:         1113
